13
Lattice="4.260799885 0.0 0.0 -2.130399942 3.689960941 0.0 0.0 0.0 24.0" Properties=species:S:1:pos:R:3:forces:R:3 energy=-113.51343536376953 free_energy=-113.51343536376953 stress="-0.009200343862175941 -5.25699192621687e-07 -2.3691463013619796e-08 -5.25699192621687e-07 -0.009199898689985275 -4.273915976682474e-08 -2.3691463013619796e-08 -4.273915976682474e-08 7.351905514951795e-05" pbc="T T T"
C       -0.00212435      -0.00365885      13.97076262       0.00256162       0.00425975      -0.00355089
C       -0.00211229       2.46364059      13.97076217       0.00228494      -0.00424476      -0.00354640
C        2.13462495       1.23000023      13.97076249      -0.00472279      -0.00018374      -0.00355171
C        2.84053415       2.45998372      13.96675259      -0.00003724      -0.00005209      -0.00366698
C        0.71013284       1.22998673      13.99200838      -0.00015827       0.00012790       0.00872722
C        2.84052446       0.00000720      13.96675259       0.00007104       0.00009464      -0.00366705
C       -0.00006631      -0.00013615      10.05245558       0.00061459       0.00121446      -0.00232193
C       -0.00007187       2.46009061      10.05247439       0.00065928      -0.00109996      -0.00251700
C        2.13054822       1.22998172      10.05245672      -0.00130443       0.00004796      -0.00232500
C        3.55051611       1.22997556      10.05236046       0.00160357       0.00006514       0.00397226
C        1.42035000      -0.00013864      10.05237306      -0.00086357       0.00131381       0.00383927
C        1.42034335       2.46010345      10.05236090      -0.00071640      -0.00154656       0.00397889
Li       0.71013075       1.22997382      11.84770805       0.00000781       0.00000358       0.00462943
