193
Lattice="17.043199539 0.0 0.0 -8.52159977 14.759843763 0.0 0.0 0.0 24.0" Properties=species:S:1:pos:R:3:forces:R:3 energy=-1786.548583984375 free_energy=-1786.548583984375 stress="-0.05124184861779213 7.124968760763295e-06 -7.369575616422708e-09 7.124968760763295e-06 -0.05125696584582329 -1.836977903124648e-09 -7.369575616422708e-09 -1.836977903124648e-09 -3.7436918773892103e-06" pbc="T T T"
C        0.00000000       0.00000000      14.82438452      -0.14253783      -0.25200459       0.00312725
C       -2.13040000       3.68996000      14.64066791      -0.49286062      -0.06106758      -0.00686136
C       12.78240000       7.37992000      13.93960912       0.15696226      -0.33866686      -0.00406933
C       -6.39120000      11.06988000      14.14487755       0.20048451       0.20268995      -0.00503471
C        4.26080000       0.00000000      14.64130816       0.19351315      -0.45601988      -0.00770776
C        2.13040000       3.68996000      15.04217480       0.27586895       0.48074985      -0.00458550
C        0.00000000       7.37992000      14.36444859       0.27970886      -0.10055520      -0.00202251
C       -2.13040000      11.06988000      13.94876049      -0.13546833       0.11424613      -0.00298929
C        8.52160000       0.00000000      13.93991873      -0.37529808      -0.03403204      -0.00740014
C        6.39120000       3.68996000      14.36494226      -0.22915542       0.19317609       0.00029266
C        4.26080000       7.37992000      14.25917396       0.01781186       0.03381787      -0.00331106
C        2.13040000      11.06988000      13.80139911       0.08970094      -0.23165071       0.00284567
C       12.78240000       0.00000000      14.14469018       0.07056937       0.27745998      -0.00712120
C       10.65200000       3.68996000      13.94914305       0.16179985      -0.05757938      -0.00508884
C        8.52160000       7.37992000      13.80177374      -0.24461883      -0.03796861       0.00258714
C        6.39120000      11.06988000      14.04127302       0.18751822       0.32535127      -0.00157036
C       -0.00009000       2.46002000      15.04198213      -0.54792333       0.00162992      -0.00007480
C       -2.13049000       6.14998000      14.36384152      -0.04495753      -0.29702747       0.00273663
C       -4.26089000       9.83995000      13.94941549      -0.02710358       0.17285177       0.00272945
C       -6.39129000      13.52991000      14.64007034       0.29985425      -0.38606471       0.00188814
C        4.26071000       2.46002000      14.82406527       0.29300341       0.00210807       0.00705242
C        2.13031000       6.14998000      14.64049532       0.30249059       0.39082968      -0.00109647
C       -0.00009000       9.83995000      13.93829252       0.22236829      -0.31095248      -0.00020243
C       -2.13049000      13.52991000      14.14321924      -0.27659434      -0.07177120       0.00604062
C        8.52151000       2.46002000      14.04048308      -0.37240291      -0.00070512       0.00363959
C        6.39111000       6.14998000      14.14283957      -0.27624142       0.07204280       0.00124896
C        4.26071000       9.83995000      13.94934360      -0.02718163      -0.17139049      -0.00074482
C        2.13031000      13.52991000      13.80130192       0.16142254       0.19378123       0.00512248
C       12.78231000       2.46002000      14.25842416      -0.03155047      -0.00063426       0.00153530
C       10.65191000       6.14998000      13.80214856       0.15935339      -0.19217652       0.00532368
C        8.52151000       9.83995000      13.93962079       0.22074768       0.30966586      -0.00079755
C        6.39111000      13.52991000      14.36581034      -0.04787999       0.29364941       0.00250451
C        2.13049000       1.22994000      15.04169683       0.26888230      -0.47420770       0.00087315
C        0.00009000       4.91990000      14.82326157      -0.15048543       0.25297859       0.00879070
C       -2.13031000       8.60986000      14.03936262       0.18329981      -0.32215786       0.00435239
C       -4.26071000      12.29982000      14.25974815       0.01385195      -0.02834295      -0.00174987
C        6.39129000       1.22994000      14.36513399      -0.23753849      -0.18777350       0.00346342
C        4.26089000       4.91990000      14.64014306       0.18185425       0.45887339       0.00098805
C        2.13049000       8.60986000      14.14356221       0.19469839      -0.20079553      -0.00025930
C        0.00009000      12.29982000      13.80117464      -0.25324225       0.04434438       0.00459856
C       10.65208000       1.22994000      13.94708826       0.15993366       0.06412156       0.00854900
C        8.52168000       4.91990000      13.93969043      -0.38106239       0.03820867      -0.00146252
C        6.39129000       8.60986000      13.94824406      -0.14193642      -0.10833383       0.00247088
C        4.26089000      12.29982000      13.93997518       0.15117760       0.34840935      -0.00056559
C       14.91288000       1.22994000      14.64134713      -0.49739563       0.06682431      -0.00228298
C       12.78248000       4.91990000      14.14251060       0.07589965      -0.27533829       0.00544957
C       10.65208000       8.60986000      13.80351948       0.08288081       0.23616785       0.00035098
C        8.52168000      12.29982000      14.36443854       0.27440053       0.10992844       0.00565604
C       15.62290000       2.46002000      14.82384385      -0.29052469       0.00012146       0.00789258
C       -3.55069000       6.14998000      14.14293141       0.27989689       0.06656703       0.00010385
C       -5.68109000       9.83995000      13.94050920      -0.21856034       0.30504173       0.00101343
C        9.23170000      13.52991000      14.64030687      -0.30042487      -0.39028743      -0.00007991
C        2.84050000       2.46002000      15.04196218       0.54921323      -0.00177405      -0.00049913
C        0.71010000       6.14998000      14.64041709      -0.30054322       0.39035246      -0.00289975
C       -1.42030000       9.83995000      13.94763679       0.02940216      -0.17405541       0.00189736
C       -3.55069000      13.52991000      14.36473937       0.05133903       0.29542410       0.00347012
C        7.10130000       2.46002000      14.25892405       0.03532735      -0.00291905       0.00336709
C        4.97090000       6.14998000      14.36382345       0.04964756      -0.30049065       0.00514252
C        2.84050000       9.83995000      13.93900650      -0.21866232      -0.31098503       0.00204875
C        0.71010000      13.52991000      13.80196041      -0.15948728       0.19185439      -0.00202915
C       11.36210000       2.46002000      14.03994962       0.37515330      -0.00434709      -0.00045101
C        9.23170000       6.14998000      13.80187857      -0.15821069      -0.19676220       0.00542784
C        7.10130000       9.83995000      13.94837095       0.02860252       0.17171715       0.00419267
C        4.97090000      13.52991000      14.14514059       0.27334708      -0.07632051      -0.00436782
C        0.71002000       1.23009000      15.04231578      -0.26854932      -0.48017222      -0.00434053
C       -1.42038000       4.92005000      14.64053968      -0.18595172       0.45475632      -0.00692287
C       -3.55078000       8.61001000      13.94856634       0.13869378      -0.11323930       0.00043337
C       -5.68118000      12.29997000      14.36499116      -0.27318633       0.10052589       0.00199234
C        4.97082000       1.23009000      14.64157451       0.49928185       0.05948442      -0.00854699
C        2.84042000       4.92005000      14.82381064       0.15237236       0.24857304       0.00309965
C        0.71002000       8.61001000      14.14359813      -0.19606358      -0.20507735      -0.00543442
C       -1.42038000      12.29997000      13.93864481      -0.15275930       0.34105784       0.00003608
C        9.23162000       1.23009000      13.94825746      -0.15911709       0.05785961      -0.00068559
C        7.10122000       4.92005000      14.14400425      -0.07058664      -0.27909961      -0.00594325
C        4.97082000       8.61001000      14.04145693      -0.17917137      -0.32499662      -0.00707270
C        2.84042000      12.29997000      13.80180356       0.25511283       0.03700196       0.00274169
C       13.49242000       1.23009000      14.36534494       0.23396109      -0.19341898      -0.00104172
C       11.36202000       4.92005000      13.93918015       0.37934941       0.03157842      -0.00235099
C        9.23162000       8.61001000      13.80291920      -0.08156478       0.23005779      -0.00125527
C        7.10122000      12.29997000      14.25948160      -0.01412490      -0.03402270      -0.00038435
C        2.84059000       0.00000000      14.82347263       0.14004439      -0.25130165       0.00852674
C        0.71019000       3.68996000      15.04174983      -0.27797616       0.47721088      -0.00093120
C       -1.42021000       7.37992000      14.25791953      -0.01899909       0.02935043       0.00087846
C       -3.55061000      11.06988000      14.04185911      -0.18716902       0.32162613      -0.00658993
C        7.10139000       0.00000000      14.14426655      -0.07804330       0.27540499      -0.00366814
C        4.97099000       3.68996000      14.64082266       0.48674616      -0.06361431      -0.00408155
C        2.84059000       7.37992000      14.36466502      -0.28386977      -0.10339606       0.00170726
C        0.71019000      11.06988000      13.80095545      -0.09078863      -0.23452732       0.00317633
C       11.36219000       0.00000000      13.93838841       0.38006181      -0.03479759       0.00339243
C        9.23179000       3.68996000      13.94945290      -0.16506365      -0.05947634      -0.00498274
C        7.10139000       7.37992000      13.93826183      -0.16280314      -0.34424055       0.00243388
C        4.97099000      11.06988000      13.94953212       0.13132548       0.11178201      -0.00092798
C       15.62299000       0.00000000      14.64177162      -0.19307753      -0.45688620      -0.00444625
C       13.49259000       3.68996000      14.36385247       0.23133813       0.19073828       0.00283002
C       11.36219000       7.37992000      13.80313664       0.24155240      -0.03958151      -0.00234962
C        9.23179000      11.06988000      14.14427886      -0.20316765       0.20111196      -0.00310545
C        0.00000000       0.00000000       9.17562429      -0.14249589      -0.25196332      -0.00316301
C       -2.13040000       3.68996000       9.35934434      -0.49281803      -0.06107354       0.00690472
C       12.78240000       7.37992000      10.06039096       0.15692458      -0.33863252       0.00409749
C       -6.39120000      11.06988000       9.85510510       0.20046362       0.20259264       0.00515522
C        4.26080000       0.00000000       9.35870785       0.19349094      -0.45604122       0.00769907
C        2.13040000       3.68996000       8.95781788       0.27590865       0.48080939       0.00461024
C        0.00000000       7.37992000       9.63556056       0.27969772      -0.10064412       0.00192892
C       -2.13040000      11.06988000      10.05123097      -0.13544786       0.11423787       0.00302942
C        8.52160000       0.00000000      10.06007293      -0.37531412      -0.03406369       0.00743684
C        6.39120000       3.68996000       9.63507167      -0.22919691       0.19315113      -0.00031132
C        4.26080000       7.37992000       9.74082761       0.01780841       0.03381455       0.00332750
C        2.13040000      11.06988000      10.19859302       0.08969812      -0.23164439      -0.00280011
C       12.78240000       0.00000000       9.85530299       0.07049245       0.27744189       0.00717376
C       10.65200000       3.68996000      10.05083101       0.16177382      -0.05755350       0.00522903
C        8.52160000       7.37992000      10.19823251      -0.24466696      -0.03797367      -0.00265250
C        6.39120000      11.06988000       9.95872929       0.18751803       0.32535687       0.00152458
C       -0.00009000       2.46002000       8.95800469      -0.54801804       0.00162493       0.00015807
C       -2.13049000       6.14998000       9.63618054      -0.04489011      -0.29708949      -0.00278340
C       -4.26089000       9.83995000      10.05056350      -0.02711986       0.17280495      -0.00264560
C       -6.39129000      13.52991000       9.35994408       0.29984149      -0.38598782      -0.00191173
C        4.26071000       2.46002000       9.17593483       0.29300177       0.00215897      -0.00700808
C        2.13031000       6.14998000       9.35951240       0.30249274       0.39080518       0.00107393
C       -0.00009000       9.83995000      10.06169567       0.22237246      -0.31092286       0.00018708
C       -2.13049000      13.52991000       9.85678629      -0.27655464      -0.07175255      -0.00608397
C        8.52151000       2.46002000       9.95951955      -0.37239742      -0.00071909      -0.00364739
C        6.39111000       6.14998000       9.85715990      -0.27621984       0.07204239      -0.00125168
C        4.26071000       9.83995000      10.05065512      -0.02718087      -0.17139880       0.00074281
C        2.13031000      13.52991000      10.19871953       0.16145165       0.19381230      -0.00523663
C       12.78231000       2.46002000       9.74157289      -0.03156108      -0.00065171      -0.00149356
C       10.65191000       6.14998000      10.19784624       0.15936264      -0.19220778      -0.00531355
C        8.52151000       9.83995000      10.06038674       0.22077483       0.30968648       0.00072213
C        6.39111000      13.52991000       9.63419097      -0.04785483       0.29363376      -0.00254299
C        2.13049000       1.22994000       8.95830251       0.26891738      -0.47428131      -0.00083208
C        0.00009000       4.91990000       9.17673484      -0.15052538       0.25298816      -0.00871989
C       -2.13031000       8.60986000       9.96063999       0.18328747      -0.32212830      -0.00440621
C       -4.26071000      12.29982000       9.74026601       0.01380519      -0.02828198       0.00169391
C        6.39129000       1.22994000       9.63485219      -0.23748124      -0.18774688      -0.00339462
C        4.26089000       4.91990000       9.35986907       0.18180199       0.45882493      -0.00100774
C        2.13049000       8.60986000       9.85643442       0.19470307      -0.20076445       0.00026095
C        0.00009000      12.29982000      10.19883083      -0.25325406       0.04434077      -0.00465333
C       10.65208000       1.22994000      10.05291647       0.15995508       0.06412733      -0.00858130
C        8.52168000       4.91990000      10.06031156      -0.38103569       0.03822126       0.00146259
C        6.39129000       8.60986000      10.05174549      -0.14192617      -0.10833485      -0.00246483
C        4.26089000      12.29982000      10.06002233       0.15116857       0.34842741       0.00056803
C       14.91288000       1.22994000       9.35865909      -0.49735218       0.06684040       0.00226006
C       12.78248000       4.91990000       9.85749211       0.07592321      -0.27532393      -0.00543979
C       10.65208000       8.60986000      10.19648942       0.08290994       0.23621640      -0.00041643
C        8.52168000      12.29982000       9.63556747       0.27437586       0.10993579      -0.00569027
C       15.62290000       2.46002000       9.17616571      -0.29045025       0.00013895      -0.00800225
C       -3.55069000       6.14998000       9.85708373       0.27991486       0.06654065      -0.00013807
C       -5.68109000       9.83995000      10.05947672      -0.21857843       0.30500159      -0.00099045
C        9.23170000      13.52991000       9.35970557      -0.30042815      -0.39022824       0.00004648
C        2.84050000       2.46002000       8.95803669       0.54923344      -0.00177511       0.00045806
C        0.71010000       6.14998000       9.35958642      -0.30056879       0.39032429       0.00291750
C       -1.42030000       9.83995000      10.05235289       0.02940513      -0.17402485      -0.00186203
C       -3.55069000      13.52991000       9.63528422       0.05125275       0.29548967      -0.00358336
C        7.10130000       2.46002000       9.74108389       0.03529388      -0.00294402      -0.00345947
C        4.97090000       6.14998000       9.63618308       0.04962267      -0.30049884      -0.00516009
C        2.84050000       9.83995000      10.06098977      -0.21865955      -0.31098068      -0.00207599
C        0.71010000      13.52991000      10.19805176      -0.15952760       0.19189389       0.00200418
C       11.36210000       2.46002000       9.96004210       0.37513024      -0.00438014       0.00042257
C        9.23170000       6.14998000      10.19812220      -0.15820709      -0.19676664      -0.00542799
C        7.10130000       9.83995000      10.05162634       0.02861305       0.17171170      -0.00414453
C        4.97090000      13.52991000       9.85484815       0.27327543      -0.07635021       0.00447907
C        0.71002000       1.23009000       8.95767784      -0.26857653      -0.48023278       0.00437957
C       -1.42038000       4.92005000       9.35947637      -0.18589361       0.45475888       0.00685933
C       -3.55078000       8.61001000      10.05142420       0.13866654      -0.11321944      -0.00039707
C       -5.68118000      12.29997000       9.63501071      -0.27313247       0.10053571      -0.00197706
C        4.97082000       1.23009000       9.35842050       0.49925935       0.05948067       0.00858526
C        2.84042000       4.92005000       9.17619591       0.15236565       0.24853972      -0.00312504
C        0.71002000       8.61001000       9.85639217      -0.19604677      -0.20502207       0.00553583
C       -1.42038000      12.29997000      10.06135631      -0.15273032       0.34104276      -0.00002635
C        9.23162000       1.23009000      10.05174113      -0.15911439       0.05785250       0.00068042
C        7.10122000       4.92005000       9.85600495      -0.07060986      -0.27910140       0.00594018
C        4.97082000       8.61001000       9.95853796      -0.17916727      -0.32496771       0.00707935
C        2.84042000      12.29997000      10.19820146       0.25513664       0.03699831      -0.00273678
C       13.49242000       1.23009000       9.63465228       0.23392862      -0.19342384       0.00106402
C       11.36202000       4.92005000      10.06080186       0.37925816       0.03160972       0.00241156
C        9.23162000       8.61001000      10.19709496      -0.08157265       0.23008227       0.00120822
C        7.10122000      12.29997000       9.74052164      -0.01413539      -0.03402226       0.00042000
C        2.84059000       0.00000000       9.17654519       0.14001672      -0.25123084      -0.00859517
C        0.71019000       3.68996000       8.95823408      -0.27801362       0.47726685       0.00097674
C       -1.42021000       7.37992000       9.74209479      -0.01896396       0.02930766      -0.00088188
C       -3.55061000      11.06988000       9.95813619      -0.18713641       0.32158279       0.00656706
C        7.10139000       0.00000000       9.85571330      -0.07795156       0.27538255       0.00383025
C        4.97099000       3.68996000       9.35918960       0.48672387      -0.06364019       0.00403625
C        2.84059000       7.37992000       9.63534279      -0.28386933      -0.10343800      -0.00175355
C        0.71019000      11.06988000      10.19903508      -0.09079494      -0.23453508      -0.00313261
C       11.36219000       0.00000000      10.06162205       0.38010824      -0.03480129      -0.00341664
C        9.23179000       3.68996000      10.05054283      -0.16504776      -0.05946902       0.00493269
C        7.10139000       7.37992000      10.06172372      -0.16274138      -0.34420377      -0.00228794
C        4.97099000      11.06988000      10.05046870       0.13131806       0.11178775       0.00090161
C       15.62299000       0.00000000       9.35823453      -0.19304645      -0.45687070       0.00443579
C       13.49259000       3.68996000       9.63615987       0.23139587       0.19071931      -0.00292738
C       11.36219000       7.37992000      10.19686815       0.24155793      -0.03958263       0.00232157
C        9.23179000      11.06988000       9.85571697      -0.20317876       0.20104496       0.00317069
Li       1.41670060       2.46606622      11.99989858       0.00011177      -0.00019464       0.00000906
