197
Lattice="17.219999313 0.0 0.0 -8.609999657 14.912956858 0.0 0.0 0.0 24.0" Properties=species:S:1:pos:R:3:forces:R:3 energy=-1824.218994140625 free_energy=-1824.218994140625 stress="-0.05101100727915764 1.0012999155151192e-05 -6.738373770076578e-08 1.0012999155151192e-05 -0.0510091707110405 -3.608514873576496e-07 -6.738373770076578e-08 -3.608514873576496e-07 -0.00014605281467083842" pbc="T T T"
C        0.00000000       0.00000000      14.97859604       0.00465798      -0.40811697       0.00241899
C       -1.23002000       2.13047000      14.97679368      -0.35122353       0.21096271       0.00239927
C       14.76004000       4.26078000      14.57704394       0.04402728       0.26281816       0.00321612
C       13.53001000       6.39125000      14.10266456       0.31082404      -0.15422830       0.00215415
C       -4.92001000       8.52171000      13.86898575       0.05702417       0.03624184      -0.00302957
C       11.06996000      10.65218000      14.10567332       0.02464349       0.34113804       0.00222345
C        9.84002000      12.78249000      14.58071542       0.24903128      -0.09261809       0.00329874
C        2.46005000       0.00000000      14.74878813       0.59387892      -0.34305972       0.00112090
C        1.23002000       2.13047000      14.97451532       0.35464838       0.20739892       0.00238025
C        0.00009000       4.26078000      14.74624186      -0.00317644       0.68878132       0.00097889
C       -1.22994000       6.39125000      14.28597695       0.15448627       0.26101103       0.00433730
C       -2.45996000       8.52171000      13.89670164       0.17019826      -0.13988623       0.00177385
C       -3.68999000      10.65218000      13.89833299      -0.03509893       0.21525711       0.00179677
C       -4.91993000      12.78249000      14.28917972       0.30649132       0.00052520       0.00438973
C        4.91993000       0.00000000      14.28685337       0.14890206      -0.26601803       0.00441244
C        3.68990000       2.13047000      14.57467392       0.19841753      -0.16666444       0.00323322
C        2.45996000       4.26078000      14.57389916      -0.04744039       0.25838470       0.00316489
C        1.22994000       6.39125000      14.28486887      -0.15446007       0.25971058       0.00431099
C       -0.00009000       8.52171000      13.90017728       0.00214186      -0.14082435       0.00341681
C       -1.23011000      10.65218000      13.70620705      -0.07583720      -0.04677194       0.00627574
C       -2.46005000      12.78249000      13.90212361      -0.11986536       0.07003380       0.00353965
C        7.37998000       0.00000000      13.89681140      -0.20856005      -0.08012683       0.00182226
C        6.14995000       2.13047000      14.10026289      -0.29290056      -0.19278517       0.00219025
C        4.92001000       4.26078000      14.17903873      -0.32006639      -0.18038128      -0.00243132
C        3.68999000       6.39125000      14.10003320      -0.31177121      -0.15742221       0.00206247
C        2.45996000       8.52171000      13.89620313      -0.17123243      -0.13942808       0.00171572
C        1.22994000      10.65218000      13.70710785       0.08065852      -0.04616278       0.00630680
C        0.00000000      12.78249000      13.70741219       0.00202780       0.09084045       0.00639376
C        9.84002000       0.00000000      13.89899771       0.20977874      -0.08150326       0.00185260
C        8.61000000       2.13047000      13.86678476       0.00333977      -0.06850218      -0.00299808
C        7.38006000       4.26078000      13.82488779      -0.35608119      -0.15852311       0.00154859
C        6.15004000       6.39125000      13.82564669      -0.31522918      -0.22390054       0.00150657
C        4.92001000       8.52171000      13.86824737      -0.05541256       0.03913796      -0.00310361
C        3.68999000      10.65218000      13.89997522       0.03456210       0.21780226       0.00186442
C        2.46005000      12.78249000      13.90502014       0.12012468       0.06876314       0.00364225
C       12.30007000       0.00000000      14.29109714      -0.15565819      -0.26792672       0.00444444
C       11.07005000       2.13047000      14.10412629       0.28584731      -0.19368824       0.00231745
C        9.84011000       4.26078000      13.82694573       0.35129967      -0.15970188       0.00158343
C        8.61009000       6.39125000      13.69234439      -0.00247005       0.00413909       0.00153735
C        7.38006000       8.52171000      13.82952141       0.03396427       0.39340287       0.00150836
C        6.15004000      10.65218000      14.10678924      -0.02802370       0.34214500       0.00225421
C        4.92010000      12.78249000      14.29223131      -0.31388092       0.00110045       0.00441658
C       14.75995000       0.00000000      14.75227972      -0.59488237      -0.34318328       0.00113875
C       13.52993000       2.13047000      14.57934630      -0.19980991      -0.16572180       0.00327508
C       12.29999000       4.26078000      14.18309674       0.31261355      -0.17838094      -0.00230821
C       11.06996000       6.39125000      13.82807266       0.31674594      -0.22574222       0.00159764
C        9.83994000       8.52171000      13.82987556      -0.03818780       0.39088070       0.00155720
C        8.60991000      10.65218000      14.18655563       0.00126588       0.35699320      -0.00233345
C        7.37998000      12.78249000      14.58208730      -0.24555692      -0.09318915       0.00326177
C        0.00000000       1.42031000      15.06435720       0.00487417       0.00709498       0.00013220
C       -1.23002000       3.55078000      14.82051288      -0.38417029       0.35760918       0.00282031
C       -2.45996000       5.68109000      14.33948724      -0.21712929      -0.11811566      -0.00028708
C       -3.68999000       7.81156000      13.93901782       0.04202893      -0.29058403       0.00082125
C       -4.92001000       9.94202000      13.94078299      -0.23286420       0.18197300       0.00081009
C       -6.14995000      12.07234000      14.34308195      -0.21023041      -0.12854579      -0.00018433
C       -7.37998000      14.20280000      14.82348274       0.12235236      -0.51500189       0.00286654
C        2.46005000       1.42031000      14.81963501       0.50735909       0.16098857       0.00286013
C        1.23002000       3.55078000      14.81846401       0.39166620       0.35491294       0.00280747
C        0.00009000       5.68109000      14.46445727      -0.00179868      -0.07238232       0.00250243
C       -1.22994000       7.81156000      14.01765711       0.05040298      -0.47041690       0.00160889
C       -2.45996000       9.94202000      13.79307676      -0.08685240      -0.04679215      -0.00175217
C       -3.68990000      12.07234000      14.02023127      -0.38304967       0.28231665       0.00163662
C       -4.91993000      14.20280000      14.46726748      -0.06044883       0.03647138       0.00245500
C        4.91993000       1.42031000      14.33806651       0.00893365       0.24990180      -0.00030100
C        3.68990000       3.55078000      14.46618506       0.41919237       0.23563623       0.00641181
C        2.45996000       5.68109000      14.33701720       0.21831343      -0.11856943      -0.00038011
C        1.22994000       7.81156000      14.01705475      -0.05346280      -0.46802190       0.00155903
C       -0.00009000       9.94202000      13.71887128       0.00094714      -0.34677610       0.00153536
C       -1.23002000      12.07234000      13.71983375      -0.30276385       0.17853209       0.00148767
C       -2.46005000      14.20280000      14.01879996      -0.43066740       0.18835175       0.00146186
C        7.37998000       1.42031000      13.93743001      -0.27174097       0.10922433       0.00076912
C        6.14995000       3.55078000      14.02845388      -0.10969039       0.10570767       0.00378303
C        4.92001000       5.68109000      14.02864841       0.03909693      -0.15227005       0.00379737
C        3.68999000       7.81156000      13.93758763      -0.04156506      -0.28865486       0.00078012
C        2.45996000       9.94202000      13.79390797       0.08488386      -0.04182558      -0.00173011
C        1.23002000      12.07234000      13.72141071       0.30606511       0.18011922       0.00151786
C        0.00000000      14.20280000      13.79394749       0.00391745       0.09367970      -0.00172153
C        9.84002000       1.42031000      13.93972538       0.27384895       0.11044496       0.00080036
C        8.61000000       3.55078000      13.81004599       0.00431449      -0.00414988       0.00207546
C        7.38006000       5.68109000      13.74733877      -0.14388454      -0.08163387       0.00493628
C        6.15004000       7.81156000      13.81182284       0.00216941       0.00286718       0.00214157
C        4.92001000       9.94202000      13.94159524       0.23338100       0.18170974       0.00079949
C        3.69007000      12.07234000      14.02304992       0.37717029       0.28193429       0.00160886
C        2.46005000      14.20280000      14.02226760       0.42950794       0.18818353       0.00153507
C       12.29990000       1.42031000      14.34269999      -0.00937311       0.24939619      -0.00027709
C       11.06988000       3.55078000      14.03214634       0.11498371       0.10711402       0.00387523
C        9.83994000       5.68109000      13.74902438       0.14912742      -0.08240983       0.00508201
C        8.60991000       7.81156000      13.75067573       0.00468952       0.16740893       0.00511169
C        7.37989000       9.94202000      14.03521392       0.15590158       0.03443208       0.00395986
C        6.14995000      12.07234000      14.34506296       0.21215710      -0.13359338      -0.00018819
C        4.91993000      14.20280000      14.47114562       0.05835367       0.03327130       0.00246809
C       14.75995000       1.42031000      14.82350387      -0.51206541       0.15979770       0.00285682
C       13.52993000       3.55078000      14.47048778      -0.41761369       0.23648429       0.00651890
C       12.29999000       5.68109000      14.03192508      -0.04225175      -0.15241280       0.00394242
C       11.06996000       7.81156000      13.81309287      -0.00237668       0.00059665       0.00218341
C        9.83994000       9.94202000      14.03492633      -0.15361971       0.03603965       0.00399930
C        8.61000000      12.07234000      14.47401584      -0.00156309      -0.48352674       0.00665703
C        7.37998000      14.20280000      14.82524943      -0.12124307      -0.51956749       0.00285879
C        0.00000000       0.00000000       8.99705551      -0.00013965      -0.92816591       0.00034687
C       -1.23002000       2.13047000       8.99886046      -0.80473846       0.46706662       0.00042841
C       14.76004000       4.26078000       9.42871760      -0.52807081       0.17286620      -0.00091501
C       13.53001000       6.39125000       9.92580991      -0.09265912      -0.27701125      -0.00352812
C       -4.92001000       8.52171000      10.16708936      -0.05506168      -0.02911828      -0.00215591
C       11.06996000      10.65218000       9.92298313      -0.28296667       0.05111002      -0.00339608
C        9.84002000      12.78249000       9.42531989      -0.11562110      -0.54543328      -0.00121753
C        2.46005000       0.00000000       9.23344079       0.37321594      -0.21225846      -0.00441378
C        1.23002000       2.13047000       8.99944607       0.80636364       0.46804851       0.00040928
C        0.00009000       4.26078000       9.23707501       0.00073406       0.42886809      -0.00472252
C       -1.22994000       6.39125000       9.71249474      -0.07724731      -0.26851314      -0.00364929
C       -2.45996000       8.52171000      10.11300916       0.05942957      -0.36477858      -0.00331604
C       -3.68999000      10.65218000      10.11087746      -0.28609741       0.23242036      -0.00313447
C       -4.91993000      12.78249000       9.70827922      -0.26834112       0.06330475      -0.00318236
C        4.91993000       0.00000000       9.70928807      -0.18395802       0.20152631      -0.00283456
C        3.68990000       2.13047000       9.42831987       0.41870293       0.37250739      -0.00076894
C        2.45996000       4.26078000       9.43010850       0.53190440       0.17193094      -0.00111789
C        1.22994000       6.39125000       9.71328605       0.08351658      -0.26921672      -0.00382410
C       -0.00009000       8.52171000      10.09535700       0.00506664      -0.53401369      -0.00060864
C       -1.23011000      10.65218000      10.28494596      -0.10216925      -0.06240312       0.00012812
C       -2.46005000      12.78249000      10.09177556      -0.45757467       0.26650241      -0.00018044
C        7.37998000       0.00000000      10.11104162      -0.34618974       0.13036415      -0.00282694
C        6.14995000       2.13047000       9.92521930      -0.18994437       0.21737987      -0.00291630
C        4.92001000       4.26078000       9.85600384       0.14070839       0.08298708      -0.00499471
C        3.68999000       6.39125000       9.92764284       0.09182826      -0.27778909      -0.00362754
C        2.45996000       8.52171000      10.11437798      -0.05954114      -0.36517143      -0.00349250
C        1.22994000      10.65218000      10.28552831       0.11089855      -0.06223161      -0.00006023
C        0.00000000      12.78249000      10.28395907      -0.00023560       0.12440892       0.00038120
C        9.84002000       0.00000000      10.11096912       0.34682122       0.13075611      -0.00298047
C        8.61000000       2.13047000      10.16734953       0.00049316       0.06073679      -0.00177521
C        7.38006000       4.26078000      10.22248357      -0.19728389      -0.03925101      -0.00100720
C        6.15004000       6.39125000      10.22310840      -0.13462818      -0.15116709      -0.00118870
C        4.92001000       8.52171000      10.16890433       0.05517973      -0.02855828      -0.00231311
C        3.68999000      10.65218000      10.11223794       0.29180881       0.23304823      -0.00345314
C        2.46005000      12.78249000      10.09233349       0.46274948       0.26697692      -0.00046402
C       12.30007000       0.00000000       9.70914272       0.18608281       0.19977310      -0.00302711
C       11.07005000       2.13047000       9.92439808       0.18659490       0.21693406      -0.00307975
C        9.84011000       4.26078000      10.22173236       0.19355008      -0.03959836      -0.00088298
C        8.61009000       6.39125000      10.36621738      -0.00248333      -0.00060620       0.00313470
C        7.38006000       8.52171000      10.22125959       0.06154566       0.19151026      -0.00148088
C        6.15004000      10.65218000       9.92406865       0.28570145       0.05051185      -0.00365222
C        4.92010000      12.78249000       9.70907427       0.26623884       0.06216549      -0.00357388
C       14.75995000       0.00000000       9.23329071      -0.37259319      -0.21390754      -0.00460057
C       13.52993000       2.13047000       9.42712765      -0.41465753       0.37241524      -0.00078265
C       12.29999000       4.26078000       9.85434195      -0.14284776       0.08442150      -0.00494505
C       11.06996000       6.39125000      10.22151223       0.13461459      -0.15029091      -0.00096515
C        9.83994000       8.52171000      10.22041380      -0.06289822       0.19255354      -0.00140211
C        8.60991000      10.65218000       9.85229118       0.00352037      -0.16963838      -0.00553860
C        7.37998000      12.78249000       9.42561385       0.11572796      -0.54542863      -0.00140221
C        1.23002000       0.71016000       8.99718321       0.78951502      -0.45255470       0.00017995
C        0.00000000       2.84062000       8.99936738       0.00145935       0.91226804       0.00043103
C       -1.22994000       4.97094000       9.42496132       0.10039367       0.50976241      -0.00091225
C       -2.45996000       7.10140000       9.91789247       0.27495056      -0.08500095      -0.00326182
C       -3.68999000       9.23187000      10.15706471       0.05410758       0.03341002      -0.00145635
C       -4.91993000      11.36218000       9.91452294       0.06404467       0.28327733      -0.00375080
C       -6.14995000      13.49265000       9.42088433       0.49194527      -0.17152119      -0.00145502
C        3.69007000       0.71016000       9.42225365       0.38628453      -0.33935878      -0.00167845
C        2.46005000       2.84062000       9.24048966       0.36356774       0.21424752      -0.00422233
C        1.23011000       4.97094000       9.42571149      -0.10481304       0.50918925      -0.00071491
C        0.00009000       7.10140000       9.83673763      -0.00521781       0.14914212      -0.00474125
C       -1.22994000       9.23187000      10.18936084       0.06775375      -0.16773221      -0.00069423
C       -2.45988000      11.36218000      10.18716046      -0.11495449       0.15193781      -0.00088191
C       -3.68990000      13.49265000       9.83249902       0.12778993      -0.07790895      -0.00553083
C        6.14995000       0.71016000       9.91583648      -0.21128342      -0.19685812      -0.00401621
C        4.91993000       2.84062000       9.72312692      -0.22276488      -0.18746299      -0.00328455
C        3.68999000       4.97094000       9.72463026      -0.27324855      -0.09803276      -0.00284186
C        2.45996000       7.10140000       9.91930198      -0.27568781      -0.08614345      -0.00302402
C        1.22994000       9.23187000      10.19004972      -0.07308824      -0.16824122      -0.00048889
C        0.00000000      11.36218000      10.32382527      -0.00253224       0.00581352       0.00214750
C       -1.23002000      13.49265000      10.18696700      -0.18168350       0.01905005      -0.00115162
C        8.61000000       0.71016000      10.15650167       0.00042013      -0.06438829      -0.00175063
C        7.37998000       2.84062000      10.13082430      -0.37554860      -0.12933084      -0.00348271
C        6.15004000       4.97094000      10.12490078      -0.50144601      -0.28876719       0.00020827
C        4.92001000       7.10140000      10.13248840      -0.29635403      -0.26139885      -0.00299075
C        3.68999000       9.23187000      10.15871143      -0.05410085       0.03377983      -0.00119841
C        2.46005000      11.36218000      10.18810538       0.10612613       0.15268660      -0.00058095
C        1.23002000      13.49265000      10.18713252       0.18206397       0.01955255      -0.00108197
C       11.07005000       0.71016000       9.91547974       0.21044998      -0.19749087      -0.00390862
C        9.84002000       2.84062000      10.13025452       0.37685284      -0.12996605      -0.00352736
C        8.61009000       4.97094000      10.32672184       0.00061137      -0.14636192       0.00014716
C        7.38006000       7.10140000      10.32671156      -0.12536812       0.07574710       0.00025430
C        6.15004000       9.23187000      10.13040357       0.07821195       0.39050472      -0.00303106
C        4.92010000      11.36218000       9.91571910      -0.06937592       0.28426534      -0.00337015
C        3.69007000      13.49265000       9.83300794      -0.13252579      -0.07764981      -0.00525166
C       13.52993000       0.71016000       9.42176349      -0.38887751      -0.33979753      -0.00145663
C       12.29990000       2.84062000       9.72177373       0.22525828      -0.18697724      -0.00321030
C       11.06996000       4.97094000      10.12344219       0.50427866      -0.28784549      -0.00012475
C        9.83994000       7.10140000      10.32578132       0.12933357       0.07655154       0.00015986
C        8.60991000       9.23187000      10.12196011       0.00296916       0.57995474       0.00056358
C        7.37998000      11.36218000       9.72032194      -0.05191243       0.28745964      -0.00274434
C        6.14995000      13.49265000       9.42121213      -0.48991254      -0.17041518      -0.00102299
C       15.98997000       0.71016000       8.99690497      -0.78928864      -0.45380005       0.00030529
C       14.75995000       2.84062000       9.23935873      -0.36821666       0.21375869      -0.00426462
C       13.53001000       4.97094000       9.72289077       0.27165174      -0.09749718      -0.00300374
C       12.29999000       7.10140000      10.13057502       0.29533893      -0.26133841      -0.00320460
C       11.06996000       9.23187000      10.12903899      -0.07901814       0.38909560      -0.00314164
C        9.84002000      11.36218000       9.71984813       0.04787230       0.28550094      -0.00292134
C        8.61000000      13.49265000       9.23693089      -0.00098436      -0.43159121      -0.00418763
Li      -0.00032345       1.41781281      10.67263166      -0.00008666      -0.00002759      -0.00171176
