197
Lattice="17.219999313 0.0 0.0 -8.609999657 14.912956858 0.0 0.0 0.0 24.0" Properties=species:S:1:pos:R:3:forces:R:3 energy=-1823.091330440483 free_energy=-1823.091330440483 stress="-0.06614828896404168 3.281566558964667e-06 3.380684020004395e-08 3.281566558964667e-06 -0.0661447643383722 1.6853282740549705e-08 3.380684020004395e-08 1.6853282740549705e-08 -4.440413301291318e-06" pbc="T T T"
C        0.00000000       0.00000000      14.04817625       0.00013656      -0.29800975       0.00552315
C       -1.23002000       2.13047000      14.04811368      -0.25799414       0.14789060       0.00551304
C       14.76004000       4.26078000      13.91640917      -0.00256811       0.02145804      -0.00166770
C       13.53001000       6.39125000      13.78630984       0.01851394      -0.01421443      -0.00123534
C       -4.92001000       8.52171000      13.73775641      -0.00319325      -0.00139774      -0.00015168
C       11.06996000      10.65218000      13.78638613      -0.00237247       0.01791475      -0.00122351
C        9.84002000      12.78249000      13.91659212       0.01526993      -0.00675204      -0.00164902
C        2.46005000       0.00000000      13.97807613       0.12906671      -0.07607975      -0.00132109
C        1.23002000       2.13047000      14.04803500       0.25727647       0.14708242       0.00549294
C        0.00009000       4.26078000      13.97793011      -0.00430905       0.15434706      -0.00133950
C       -1.22994000       6.39125000      13.83878985       0.00265917       0.02741695      -0.00133756
C       -2.45996000       8.52171000      13.74871831       0.00618539      -0.00676336      -0.00097566
C       -3.68999000      10.65218000      13.74876313      -0.00244717       0.00403411      -0.00097273
C       -4.91993000      12.78249000      13.83896145       0.02569676      -0.01066590      -0.00133354
C        4.91993000       0.00000000      13.83881017       0.02693325      -0.01533811      -0.00134281
C        3.68990000       2.13047000      13.91628995       0.01872800      -0.00800988      -0.00170574
C        2.45996000       4.26078000      13.91624087       0.00063737       0.02334508      -0.00169590
C        1.22994000       6.39125000      13.83869403       0.00081302       0.03025737      -0.00133951
C       -0.00009000       8.52171000      13.75545979       0.00448594       0.00345654      -0.00000436
C       -1.23011000      10.65218000      13.72445633       0.00573979      -0.00200226       0.00178526
C       -2.46005000      12.78249000      13.75553492       0.00530561       0.00290618       0.00000618
C        7.37998000       0.00000000      13.74866160      -0.00971325      -0.00342444      -0.00095802
C        6.14995000       2.13047000      13.78620807      -0.02100515      -0.01018460      -0.00125308
C        4.92001000       4.26078000      13.80487087      -0.03397482      -0.01348936      -0.00115957
C        3.68999000       6.39125000      13.78619286      -0.01834370      -0.01447408      -0.00125874
C        2.45996000       8.52171000      13.74863390      -0.00720789      -0.00630991      -0.00097071
C        1.22994000      10.65218000      13.72443063      -0.00132761      -0.00436175       0.00180451
C        0.00000000      12.78249000      13.72443989      -0.00006800      -0.00024363       0.00181717
C        9.84002000       0.00000000      13.74870677       0.00976713      -0.00324179      -0.00094850
C        8.61000000       2.13047000      13.73768568       0.00032539       0.00256521      -0.00016295
C        7.38006000       4.26078000      13.73294987      -0.01378607       0.00316184      -0.00065564
C        6.15004000       6.39125000      13.73297454      -0.00643214      -0.00914803      -0.00066236
C        4.92001000       8.52171000      13.73770720       0.00371077      -0.00145047      -0.00016113
C        3.68999000      10.65218000      13.74871684       0.00224710       0.00475335      -0.00095777
C        2.46005000      12.78249000      13.75555046      -0.00074486       0.00088233       0.00002412
C       12.30007000       0.00000000      13.83893658      -0.02808159      -0.01682867      -0.00132565
C       11.07005000       2.13047000      13.78634172       0.01589731      -0.00950428      -0.00123759
C        9.84011000       4.26078000      13.73297955       0.00270059       0.00365485      -0.00064847
C        8.61009000       6.39125000      13.71342735      -0.00537771       0.00022358       0.00275020
C        7.38006000       8.52171000      13.73301934      -0.00072309       0.01109705      -0.00064848
C        6.15004000      10.65218000      13.78637182      -0.00219354       0.01842938      -0.00123306
C        4.92010000      12.78249000      13.83897854      -0.03179210      -0.00941024      -0.00131703
C       14.75995000       0.00000000      13.97817351      -0.12915582      -0.07497329      -0.00129570
C       13.52993000       2.13047000      13.91652966      -0.01361400      -0.00955427      -0.00166489
C       12.29999000       4.26078000      13.80502212       0.02873424      -0.01291148      -0.00113737
C       11.06996000       6.39125000      13.73301235       0.00790027      -0.00876763      -0.00063505
C        9.83994000       8.52171000      13.73302640      -0.00350738       0.01098638      -0.00063232
C        8.60991000      10.65218000      13.80507884       0.00151757       0.03116456      -0.00112928
C        7.37998000      12.78249000      13.91661296      -0.01406817      -0.00633661      -0.00163575
C        0.00000000       1.42031000      14.08653819       0.00009616       0.00051227       0.00086761
C       -1.23002000       3.55078000      13.99796509      -0.07814791       0.16073419       0.00056816
C       -2.45996000       5.68109000      13.84847689      -0.00923000      -0.01080015      -0.00137285
C       -3.68999000       7.81156000      13.75238226       0.00484507      -0.01517015      -0.00333970
C       -4.92001000       9.94202000      13.75241850      -0.01114186       0.01070968      -0.00334654
C       -6.14995000      12.07234000      13.84865584      -0.01551574       0.00288025      -0.00135323
C       -7.37998000      14.20280000      13.99809599       0.10263881      -0.15286189       0.00059515
C        2.46005000       1.42031000      13.99794022       0.17931621      -0.01367187       0.00054148
C        1.23002000       3.55078000      13.99787733       0.08059564       0.15840710       0.00054232
C        0.00009000       5.68109000      13.88866143      -0.00445580      -0.02841386       0.00467333
C       -1.22994000       7.81156000      13.77497009      -0.00107531      -0.03640564       0.00299095
C       -2.45996000       9.94202000      13.73264773      -0.00219446      -0.00179100       0.00021787
C       -3.68990000      12.07234000      13.77507771      -0.03277344       0.02225050       0.00299975
C       -4.91993000      14.20280000      13.88883403      -0.02793061       0.01172160       0.00468189
C        4.91993000       1.42031000      13.84840372      -0.00529103       0.01498383      -0.00138403
C        3.68990000       3.55078000      13.88397001       0.05108037       0.02331496       0.00453307
C        2.45996000       5.68109000      13.84833448       0.01019424      -0.01035175      -0.00139409
C        1.22994000       7.81156000      13.77489633      -0.00225986      -0.03350444       0.00299615
C       -0.00009000       9.94202000      13.72638526       0.00115366      -0.00617329      -0.00223699
C       -1.23002000      12.07234000      13.72641082      -0.00455672       0.00813073      -0.00223262
C       -2.46005000      14.20280000      13.77497433      -0.03005230       0.01503365       0.00300314
C        7.37998000       1.42031000      13.75230209      -0.01595291       0.00400471      -0.00334117
C        6.14995000       3.55078000      13.77161516       0.00002822       0.00052976       0.00327054
C        4.92001000       5.68109000      13.77162265       0.00289766      -0.00388578       0.00327819
C        3.68999000       7.81156000      13.75229629      -0.00482073      -0.01541119      -0.00334404
C        2.45996000       9.94202000      13.73259136      -0.00225525       0.00024081       0.00023452
C        1.23002000      12.07234000      13.72640845       0.00487365       0.00736811      -0.00222448
C        0.00000000      14.20280000      13.73259961      -0.00017100      -0.00285862       0.00024473
C        9.84002000       1.42031000      13.75235923       0.01473744       0.00364186      -0.00334039
C        8.61000000       3.55078000      13.72999651       0.00214110      -0.00219675      -0.00060823
C        7.38006000       5.68109000      13.72267972      -0.00080280       0.00082251      -0.00334394
C        6.15004000       7.81156000      13.73003370       0.00107576      -0.00178563      -0.00061563
C        4.92001000       9.94202000      13.75237916       0.01019269       0.01012784      -0.00334925
C        3.69007000      12.07234000      13.77506247       0.02711066       0.02388131       0.00302328
C        2.46005000      14.20280000      13.77503848       0.02997704       0.01394532       0.00302251
C       12.29990000       1.42031000      13.84861217       0.01126090       0.01379121      -0.00136472
C       11.06988000       3.55078000      13.77174054       0.01115360       0.00004231       0.00328696
C        9.83994000       5.68109000      13.72269584       0.00500656       0.00063994      -0.00333463
C        8.60991000       7.81156000      13.72271532       0.00544501      -0.00068836      -0.00333862
C        7.37989000       9.94202000      13.77175852       0.01096334      -0.00161235       0.00329841
C        6.14995000      12.07234000      13.84866889       0.02028500       0.00209922      -0.00135446
C        4.91993000      14.20280000      13.88892672       0.02883833       0.01313235       0.00470849
C       14.75995000       1.42031000      13.99807799      -0.18375136      -0.01177628       0.00058203
C       13.52993000       3.55078000      13.88420118      -0.04427344       0.02267027       0.00457540
C       12.29999000       5.68109000      13.77171767      -0.00342452      -0.00383070       0.00330752
C       11.06996000       7.81156000      13.73005917      -0.00231842      -0.00140014      -0.00059742
C        9.83994000       9.94202000      13.77176425      -0.00634046      -0.00102925       0.00331097
C        8.61000000      12.07234000      13.88431401      -0.00055597      -0.05006793       0.00459781
C        7.37998000      14.20280000      13.99813338      -0.10287434      -0.15310326       0.00061023
C        0.00000000       0.00000000       9.98461407      -0.00027632      -0.27521214       0.00480423
C       -1.23002000       2.13047000       9.98473307      -0.23907111       0.13627668       0.00482828
C       14.76004000       4.26078000      10.10381596      -0.05441830       0.00051762       0.00244058
C       13.53001000       6.39125000      10.21216591       0.00158559      -0.00075702      -0.00326216
C       -4.92001000       8.52171000      10.25011227       0.00174499       0.00152976      -0.00222460
C       11.06996000      10.65218000      10.21202393       0.00346032      -0.00297919      -0.00327698
C        9.84002000      12.78249000      10.10355334      -0.03051641      -0.04339494       0.00239939
C        2.46005000       0.00000000      10.05630295       0.18201996      -0.10579146      -0.00531970
C        1.23002000       2.13047000       9.98475526       0.23784759       0.13590148       0.00483657
C        0.00009000       4.26078000      10.05655908      -0.00147121       0.21552741      -0.00528508
C       -1.22994000       6.39125000      10.17188404       0.00334369      -0.01728950       0.00267466
C       -2.45996000       8.52171000      10.24353180       0.00317094      -0.00804623      -0.00074476
C       -3.68999000      10.65218000      10.24346923      -0.00258386       0.00300152      -0.00074975
C       -4.91993000      12.78249000      10.17165516      -0.01304564       0.01260580       0.00263854
C        4.91993000       0.00000000      10.17173597      -0.01137893       0.00445218       0.00264350
C        3.68990000       2.13047000      10.10376274       0.02858069       0.04675809       0.00243621
C        2.45996000       4.26078000      10.10387941       0.05891386       0.00003965       0.00244715
C        1.22994000       6.39125000      10.17189881       0.00090503      -0.01739205       0.00267279
C       -0.00009000       8.52171000      10.23657663       0.00537985      -0.01047462       0.00052892
C       -1.23011000      10.65218000      10.25915386       0.01011703      -0.00387757      -0.00048255
C       -2.46005000      12.78249000      10.23650067      -0.00367879       0.00581944       0.00050680
C        7.37998000       0.00000000      10.24347955      -0.00959254       0.00043093      -0.00075526
C        6.14995000       2.13047000      10.21213507      -0.00113851      -0.00264154      -0.00326239
C        4.92001000       4.26078000      10.19292352       0.01489113       0.01361439       0.00053335
C        3.68999000       6.39125000      10.21221759      -0.00209430      -0.00066505      -0.00325938
C        2.45996000       8.52171000      10.24353398      -0.00459247      -0.00761852      -0.00074188
C        1.22994000      10.65218000      10.25914439       0.00098872      -0.00335597      -0.00047680
C        0.00000000      12.78249000      10.25913111      -0.00030460      -0.00104967      -0.00048587
C        9.84002000       0.00000000      10.24348485       0.00951989       0.00062503      -0.00075261
C        8.61000000       2.13047000      10.25011945       0.00006707      -0.00368387      -0.00221755
C        7.38006000       4.26078000      10.24671920      -0.00087225       0.00676927       0.00131224
C        6.15004000       6.39125000      10.24673553       0.00086008      -0.00186955       0.00131210
C        4.92001000       8.52171000      10.25014583      -0.00188349       0.00179408      -0.00222348
C        3.68999000      10.65218000      10.24349457       0.00788888       0.00360271      -0.00074740
C        2.46005000      12.78249000      10.23652122       0.00876440       0.00655310       0.00051019
C       12.30007000       0.00000000      10.17174187       0.01244437       0.00298242       0.00264288
C       11.07005000       2.13047000      10.21210071      -0.00337646      -0.00466392      -0.00325554
C        9.84011000       4.26078000      10.24668950      -0.00354960       0.00441760       0.00132428
C        8.61009000       6.39125000      10.25831923      -0.00450052      -0.00246941      -0.00650086
C        7.38006000       8.52171000      10.24666839      -0.00229333      -0.00181910       0.00131700
C        6.15004000      10.65218000      10.21206403      -0.00160031      -0.00498777      -0.00326889
C        4.92010000      12.78249000      10.17171811       0.00784564       0.01103950       0.00263649
C       14.75995000       0.00000000      10.05628102      -0.18212396      -0.10475228      -0.00532962
C       13.52993000       2.13047000      10.10367639      -0.02255756       0.04792027       0.00243082
C       12.29999000       4.26078000      10.19282934      -0.01469882       0.01432218       0.00054505
C       11.06996000       6.39125000      10.24668459       0.00016999      -0.00141441       0.00132026
C        9.83994000       8.52171000      10.24664252      -0.00123824       0.00108145       0.00131366
C        8.60991000      10.65218000      10.19269948       0.00432774      -0.02146939       0.00052668
C        7.37998000      12.78249000      10.10355247       0.03118676      -0.04260491       0.00239838
C        1.23002000       0.71016000       9.98463296       0.23782888      -0.13694173       0.00442867
C        0.00000000       2.84062000       9.98476576       0.00050379       0.27006831       0.00445558
C       -1.22994000       4.97094000      10.10400664       0.03403438       0.03697327       0.00223943
C       -2.45996000       7.10140000      10.21249685       0.00219311      -0.00251447      -0.00290202
C       -3.68999000       9.23187000      10.25072410      -0.00024620      -0.00164609      -0.00272386
C       -4.91993000      11.36218000      10.21233799      -0.00400457       0.00765694      -0.00291716
C       -6.14995000      13.49265000      10.10372199       0.04807886       0.01064295       0.00219574
C        3.69007000       0.71016000      10.10381278       0.00949154      -0.04644653       0.00221444
C        2.46005000       2.84062000      10.05574227       0.17440633       0.09976933      -0.00522151
C        1.23011000       4.97094000      10.10402900      -0.03864715       0.03751811       0.00224043
C        0.00009000       7.10140000      10.19416200      -0.00546807       0.01470103      -0.00045165
C       -1.22994000       9.23187000      10.24884172      -0.00239437       0.00040232       0.00178340
C       -2.45988000      11.36218000      10.24879315      -0.00600992       0.00681241       0.00177689
C       -3.68990000      13.49265000      10.19399079       0.00695443      -0.00690993      -0.00048632
C        6.14995000       0.71016000      10.21242329      -0.00212161      -0.00009916      -0.00291205
C        4.91993000       2.84062000      10.17099102      -0.02261356      -0.01246384       0.00240095
C        3.68999000       4.97094000      10.17106773      -0.01821611      -0.01483057       0.00240584
C        2.45996000       7.10140000      10.21252014      -0.00094843      -0.00212992      -0.00290016
C        1.22994000       9.23187000      10.24883289      -0.00179603       0.00023928       0.00178344
C        0.00000000      11.36218000      10.26123129      -0.00212174       0.00482342      -0.00519292
C       -1.23002000      13.49265000      10.24879284       0.00034940      -0.00276598       0.00176506
C        8.61000000       0.71016000      10.25071025       0.00019542       0.00102382      -0.00272439
C        7.37998000       2.84062000      10.24211167      -0.00947070      -0.00619865      -0.00144428
C        6.15004000       4.97094000      10.23429782      -0.01094051      -0.00522435      -0.00027471
C        4.92001000       7.10140000      10.24215380      -0.00598185      -0.00734535      -0.00144862
C        3.68999000       9.23187000      10.25073949       0.00075460      -0.00159097      -0.00271925
C        2.46005000      11.36218000      10.24880594      -0.00516994       0.00630256       0.00177888
C        1.23002000      13.49265000      10.24879788       0.00089137      -0.00314435       0.00177170
C       11.07005000       0.71016000      10.21241763       0.00225098      -0.00120950      -0.00291048
C        9.84002000       2.84062000      10.24209314       0.00916614      -0.00697218      -0.00143651
C        8.61009000       4.97094000      10.25639186      -0.00115454       0.00220955      -0.00203325
C        7.38006000       7.10140000      10.25638951       0.00074424      -0.00157460      -0.00203440
C        6.15004000       9.23187000      10.24208523       0.00217138       0.00732484      -0.00144811
C        4.92010000      11.36218000      10.21239739      -0.00290888       0.00696379      -0.00291253
C        3.69007000      13.49265000      10.19404319      -0.01292188      -0.00812311      -0.00048860
C       13.52993000       0.71016000      10.10377787      -0.01046436      -0.04497539       0.00220860
C       12.29990000       2.84062000      10.17089608       0.02829302      -0.01087272       0.00241225
C       11.06996000       4.97094000      10.23423322       0.01540748      -0.00319996      -0.00025994
C        9.83994000       7.10140000      10.25636294       0.00259615       0.00130996      -0.00203242
C        8.60991000       9.23187000      10.23417024       0.00449263       0.01346453      -0.00027070
C        7.37998000      11.36218000      10.17078709       0.00533720       0.03130760       0.00238908
C        6.14995000      13.49265000      10.10372566      -0.04359876       0.01257643       0.00219108
C       15.98997000       0.71016000       9.98461212      -0.23714717      -0.13711156       0.00441718
C       14.75995000       2.84062000      10.05568963      -0.17916694       0.09912054      -0.00522837
C       13.53001000       4.97094000      10.17098545       0.01920287      -0.01538828       0.00240408
C       12.29999000       7.10140000      10.24210603       0.00595673      -0.00760773      -0.00144614
C       11.06996000       9.23187000      10.24204866      -0.00318833       0.00778731      -0.00145371
C        9.84002000      11.36218000      10.17077575      -0.00769634       0.02897465       0.00238266
C        8.61000000      13.49265000      10.05551028      -0.00005781      -0.20799311      -0.00526651
Li      -0.00001059       1.42011238      11.86479900       0.00000014      -0.00000129       0.00506009
