197
Lattice="17.219999313 0.0 0.0 -8.609999657 14.912956858 0.0 0.0 0.0 24.0" Properties=species:S:1:pos:R:3:forces:R:3 energy=-1823.2353515625 free_energy=-1823.2353515625 stress="-0.06828545033931732 2.5075005396502092e-06 -1.7977318245154805e-10 2.5075005396502092e-06 -0.0682825967669487 -1.6874879271711052e-09 -1.7977318245154805e-10 -1.6874879271711052e-09 -3.4736523957690224e-05" pbc="T T T"
C        0.00000000       0.00000000      13.93445179      -0.15773576      -0.09105976       0.00907764
C       -1.23002000       2.13047000      13.91131757      -0.15891919       0.09092375      -0.00612191
C       14.76004000       4.26078000      13.86302249      -0.00525404      -0.00531185       0.00676632
C       13.53001000       6.39125000      13.82698086       0.00680661      -0.00359577      -0.00150834
C       -4.92001000       8.52171000      13.82708530       0.00015473       0.00776640      -0.00205574
C       11.06996000      10.65218000      13.86299754      -0.00851128      -0.00146957       0.00698983
C        9.84002000      12.78249000      13.91132314       0.00018104      -0.18234746      -0.00607562
C        2.46005000       0.00000000      13.93450277       0.15690583      -0.09148775       0.00824356
C        1.23002000       2.13047000      13.93442547      -0.00044518       0.18092799       0.00865011
C        0.00009000       4.26078000      13.89320896       0.01906367       0.01524533       0.00513218
C       -1.22994000       6.39125000      13.84276913      -0.00757466      -0.00107445       0.00479719
C       -2.45996000       8.52171000      13.82476526      -0.00083086      -0.00026892      -0.00923989
C       -3.68999000      10.65218000      13.84276458      -0.00401309      -0.00979186       0.00486580
C       -4.91993000      12.78249000      13.89323007       0.02093106       0.01398778       0.00536643
C        4.91993000       0.00000000      13.89322798       0.00216281      -0.02408182       0.00543152
C        3.68990000       2.13047000      13.91124492       0.16201478       0.09210659      -0.00565592
C        2.45996000       4.26078000      13.89313353      -0.02155236       0.01680185       0.00569075
C        1.22994000       6.39125000      13.85243798       0.00323668       0.00785086      -0.00557989
C       -0.00009000       8.52171000      13.82115084       0.00361326       0.00066586      -0.00341209
C       -1.23011000      10.65218000      13.82108312       0.00326642      -0.00187180      -0.00337937
C       -2.46005000      12.78249000      13.85248210       0.00911517      -0.00104990      -0.00564992
C        7.37998000       0.00000000      13.84286817       0.00276260       0.00629436       0.00479756
C        6.14995000       2.13047000      13.86310923      -0.00625506       0.00616016       0.00658506
C        4.92001000       4.26078000      13.86312360       0.00034706      -0.00528761       0.00610911
C        3.68999000       6.39125000      13.84275427       0.00682692      -0.00065857       0.00501943
C        2.45996000       8.52171000      13.82119364       0.00009146      -0.00063876      -0.00405613
C        1.22994000      10.65218000      13.80984537       0.00039665      -0.00370850       0.00666443
C        0.00000000      12.78249000      13.82114007      -0.00065936       0.00121830      -0.00374390
C        9.84002000       0.00000000      13.82477374      -0.00000255      -0.00007463      -0.00909867
C        8.61000000       2.13047000      13.82705709      -0.00665787      -0.00476319      -0.00150576
C        7.38006000       4.26078000      13.82864154      -0.01453374      -0.00315443      -0.00305732
C        6.15004000       6.39125000      13.82699550      -0.00711113      -0.00365138      -0.00142716
C        4.92001000       8.52171000      13.82472919       0.00000368       0.00007279      -0.00915196
C        3.68999000      10.65218000      13.82105250       0.00082448      -0.00323830      -0.00325558
C        2.46005000      12.78249000      13.82108325       0.00039603       0.00120297      -0.00326545
C       12.30007000       0.00000000      13.84282342      -0.00710949       0.00669697       0.00485474
C       11.07005000       2.13047000      13.82710305       0.00206712      -0.00440688      -0.00189968
C        9.84011000       4.26078000      13.81339944      -0.00678830       0.00273627      -0.00158525
C        8.61009000       6.39125000      13.81334855      -0.00575163       0.00108961      -0.00114091
C        7.38006000       8.52171000      13.82714701      -0.00452090       0.00814298      -0.00235434
C        6.15004000      10.65218000      13.84270834       0.00006329      -0.00899214       0.00515800
C        4.92010000      12.78249000      13.85248791      -0.01011630      -0.00192245      -0.00596440
C       14.75995000       0.00000000      13.89331496       0.00156426      -0.02507553       0.00516766
C       13.52993000       2.13047000      13.86310194       0.00684715       0.00646723       0.00698981
C       12.29999000       4.26078000      13.82869621       0.00987947      -0.00280439      -0.00347378
C       11.06996000       6.39125000      13.81334459       0.00181717       0.00099663      -0.00111777
C        9.83994000       8.52171000      13.82871056       0.00040570       0.01406731      -0.00328076
C        8.60991000      10.65218000      13.86307644       0.01049971      -0.00126097       0.00666394
C        7.37998000      12.78249000      13.89323813      -0.02113611       0.01472133       0.00549959
C        0.00000000       1.42031000      13.93443961      -0.15765189       0.09105074       0.00891684
C       -1.23002000       3.55078000      13.89323659      -0.01907671      -0.01716804       0.00521615
C       -2.45996000       5.68109000      13.84269406       0.00391857       0.00649399       0.00513832
C       -3.68999000       7.81156000      13.82480301       0.00012003      -0.00008617      -0.00964376
C       -4.92001000       9.94202000      13.84275405       0.00683726      -0.00002681       0.00488305
C       -6.14995000      12.07234000      13.89321546      -0.02313787      -0.00844888       0.00537679
C       -7.37998000      14.20280000      13.93451245       0.00019846      -0.18201876       0.00842102
C        2.46005000       1.42031000      13.93446905       0.15439267       0.08978464       0.00838020
C        1.23002000       3.55078000      13.91120609      -0.00059160       0.17815261      -0.00566180
C        0.00009000       5.68109000      13.86308352       0.00569865      -0.00262338       0.00658384
C       -1.22994000       7.81156000      13.82705128      -0.00353079      -0.00910152      -0.00170289
C       -2.45996000       9.94202000      13.82700254      -0.01026059       0.00163087      -0.00139299
C       -3.68990000      12.07234000      13.86311858      -0.00124292       0.01115506       0.00642889
C       -4.91993000      14.20280000      13.91125181       0.15547383      -0.09277516      -0.00533163
C        4.91993000       1.42031000      13.89321974      -0.00033597       0.02566164       0.00547387
C        3.68990000       3.55078000      13.89321869       0.02458808      -0.01676518       0.00507071
C        2.45996000       5.68109000      13.86302865      -0.00831763      -0.00097955       0.00683447
C        1.22994000       7.81156000      13.82879722       0.00056150      -0.01330823      -0.00363724
C       -0.00009000       9.94202000      13.81336566      -0.00028175      -0.00099922      -0.00138645
C       -1.23002000      12.07234000      13.82872771      -0.01191755       0.01071047      -0.00329820
C       -2.46005000      14.20280000      13.86316101      -0.00558229      -0.00642741       0.00646490
C        7.37998000       1.42031000      13.84283038       0.00279961      -0.00643854       0.00477226
C        6.14995000       3.55078000      13.85242059       0.00812992      -0.00047960      -0.00556326
C        4.92001000       5.68109000      13.84276650      -0.00393035       0.00644231       0.00476214
C        3.68999000       7.81156000      13.82704956       0.00011036      -0.00777917      -0.00168201
C        2.45996000       9.94202000      13.81335063       0.00128668      -0.00139321      -0.00118636
C        1.23002000      12.07234000      13.81330650      -0.00033950       0.00475801      -0.00097772
C        0.00000000      14.20280000      13.82710447      -0.00654340       0.00408990      -0.00184668
C        9.84002000       1.42031000      13.82479433      -0.00028819      -0.00033758      -0.00915411
C        8.61000000       3.55078000      13.82110790       0.00129801      -0.00429649      -0.00354562
C        7.38006000       5.68109000      13.82103541      -0.00099498      -0.00000108      -0.00317326
C        6.15004000       7.81156000      13.82478822      -0.00068283      -0.00041217      -0.00938326
C        4.92001000       9.94202000      13.82694176       0.00638219       0.00264325      -0.00128620
C        3.69007000      12.07234000      13.82874817       0.01096347       0.00997507      -0.00398924
C        2.46005000      14.20280000      13.82702641       0.00584416       0.00383237      -0.00149357
C       12.29990000       1.42031000      13.84282986       0.00155670      -0.00680311       0.00487531
C       11.06988000       3.55078000      13.82116935       0.00746568      -0.00441230      -0.00362172
C        9.83994000       5.68109000      13.80987306       0.00429916       0.00031210       0.00653844
C        8.60991000       7.81156000      13.82117909       0.00462819       0.00021871      -0.00373858
C        7.37989000       9.94202000      13.84281454      -0.00267826      -0.00044586       0.00465783
C        6.14995000      12.07234000      13.86305969       0.00117443       0.01207441       0.00696490
C        4.91993000      14.20280000      13.86316724       0.01055185      -0.00722428       0.00670016
C       14.75995000       1.42031000      13.89329856       0.00125125       0.02534410       0.00519331
C       13.52993000       3.55078000      13.85239637      -0.00298838      -0.00047965      -0.00555394
C       12.29999000       5.68109000      13.82105367       0.00061962       0.00033253      -0.00327248
C       11.06996000       7.81156000      13.82113152       0.00022644       0.00064257      -0.00365323
C        9.83994000       9.94202000      13.85235316      -0.00000884      -0.00711456      -0.00517565
C        8.61000000      12.07234000      13.89325851       0.02201567      -0.00848484       0.00513946
C        7.37998000      14.20280000      13.91130593      -0.15880157      -0.09157615      -0.00580345
C        0.00000000       0.00000000      10.06554797      -0.15773578      -0.09105960      -0.00907715
C       -1.23002000       2.13047000      10.08868234      -0.15891862       0.09092362       0.00612235
C       14.76004000       4.26078000      10.13697793      -0.00525383      -0.00531157      -0.00677857
C       13.53001000       6.39125000      10.17301925       0.00680659      -0.00359651       0.00150812
C       -4.92001000       8.52171000      10.17291454       0.00015462       0.00776600       0.00206018
C       11.06996000      10.65218000      10.13700291      -0.00851093      -0.00146802      -0.00700166
C        9.84002000      12.78249000      10.08867643       0.00018124      -0.18234730       0.00607508
C        2.46005000       0.00000000      10.06549774       0.15690482      -0.09148689      -0.00824806
C        1.23002000       2.13047000      10.06557395      -0.00044491       0.18092753      -0.00863820
C        0.00009000       4.26078000      10.10679077       0.01906317       0.01524739      -0.00512056
C       -1.22994000       6.39125000      10.15723089      -0.00757467      -0.00107486      -0.00479169
C       -2.45996000       8.52171000      10.17523521      -0.00083042      -0.00026883       0.00925184
C       -3.68999000      10.65218000      10.15723535      -0.00401326      -0.00979118      -0.00487105
C       -4.91993000      12.78249000      10.10676961       0.02093062       0.01398855      -0.00537843
C        4.91993000       0.00000000      10.10677249       0.00216271      -0.02408169      -0.00543234
C        3.68990000       2.13047000      10.08875528       0.16201557       0.09210686       0.00564973
C        2.45996000       4.26078000      10.10686652      -0.02155165       0.01680177      -0.00569111
C        1.22994000       6.39125000      10.14756187       0.00323630       0.00785038       0.00557987
C       -0.00009000       8.52171000      10.17884891       0.00361378       0.00066568       0.00342219
C       -1.23011000      10.65218000      10.17891588       0.00326588      -0.00187065       0.00340184
C       -2.46005000      12.78249000      10.14751827       0.00911574      -0.00104936       0.00564967
C        7.37998000       0.00000000      10.15713142       0.00276291       0.00629468      -0.00478430
C        6.14995000       2.13047000      10.13689070      -0.00625581       0.00616008      -0.00657944
C        4.92001000       4.26078000      10.13687611       0.00034659      -0.00528783      -0.00610999
C        3.68999000       6.39125000      10.15724629       0.00682773      -0.00066219      -0.00503046
C        2.45996000       8.52171000      10.17880613       0.00009171      -0.00063855       0.00405566
C        1.22994000      10.65218000      10.19015492       0.00039710      -0.00370790      -0.00665259
C        0.00000000      12.78249000      10.17886005      -0.00065915       0.00121931       0.00375691
C        9.84002000       0.00000000      10.17522630      -0.00000224      -0.00007468       0.00909972
C        8.61000000       2.13047000      10.17294300      -0.00665704      -0.00476324       0.00150069
C        7.38006000       4.26078000      10.17135853      -0.01453337      -0.00315454       0.00304549
C        6.15004000       6.39125000      10.17300442      -0.00711089      -0.00365151       0.00142106
C        4.92001000       8.52171000      10.17527041       0.00000391       0.00007240       0.00916301
C        3.68999000      10.65218000      10.17894760       0.00082420      -0.00323817       0.00325681
C        2.46005000      12.78249000      10.17891629       0.00039505       0.00120327       0.00328202
C       12.30007000       0.00000000      10.15717664      -0.00711019       0.00669730      -0.00486033
C       11.07005000       2.13047000      10.17289697       0.00206770      -0.00440693       0.00189375
C        9.84011000       4.26078000      10.18660119      -0.00678815       0.00273592       0.00156717
C        8.61009000       6.39125000      10.18665200      -0.00575367       0.00108866       0.00112226
C        7.38006000       8.52171000      10.17285314      -0.00452102       0.00814327       0.00234223
C        6.15004000      10.65218000      10.15729177       0.00006314      -0.00899349      -0.00515798
C        4.92010000      12.78249000      10.14751231      -0.01011618      -0.00192328       0.00596440
C       14.75995000       0.00000000      10.10668527       0.00156428      -0.02507495      -0.00517998
C       13.52993000       2.13047000      10.13689801       0.00684725       0.00646757      -0.00699606
C       12.29999000       4.26078000      10.17130392       0.00987941      -0.00280419       0.00346704
C       11.06996000       6.39125000      10.18665515       0.00181693       0.00099652       0.00111236
C        9.83994000       8.52171000      10.17128932       0.00040588       0.01406592       0.00327955
C        8.60991000      10.65218000      10.13692357       0.01050044      -0.00125969      -0.00666499
C        7.37998000      12.78249000      10.10676208      -0.02113555       0.01472197      -0.00549998
C        0.00000000       1.42031000      10.06556042      -0.15765296       0.09105057      -0.00892268
C       -1.23002000       3.55078000      10.10676370      -0.01907628      -0.01716765      -0.00521703
C       -2.45996000       5.68109000      10.15730571       0.00391818       0.00649391      -0.00513362
C       -3.68999000       7.81156000      10.17519730       0.00011985      -0.00008593       0.00963165
C       -4.92001000       9.94202000      10.15724589       0.00683933      -0.00002849      -0.00487756
C       -6.14995000      12.07234000      10.10678479      -0.02313818      -0.00844828      -0.00537034
C       -7.37998000      14.20280000      10.06548790       0.00019934      -0.18201891      -0.00842181
C        2.46005000       1.42031000      10.06553119       0.15439287       0.08978499      -0.00837979
C        1.23002000       3.55078000      10.08879391      -0.00059223       0.17815326       0.00565099
C        0.00009000       5.68109000      10.13691623       0.00569845      -0.00262475      -0.00658924
C       -1.22994000       7.81156000      10.17294943      -0.00353153      -0.00910139       0.00168960
C       -2.45996000       9.94202000      10.17299739      -0.01025980       0.00163037       0.00138554
C       -3.68990000      12.07234000      10.13688104      -0.00124135       0.01115328      -0.00641646
C       -4.91993000      14.20280000      10.08874740       0.15547465      -0.09277533       0.00534413
C        4.91993000       1.42031000      10.10678060      -0.00033548       0.02566156      -0.00547991
C        3.68990000       3.55078000      10.10678076       0.02458805      -0.01676503      -0.00506554
C        2.45996000       5.68109000      10.13697174      -0.00831801      -0.00098031      -0.00682931
C        1.22994000       7.81156000      10.17120241       0.00056121      -0.01330745       0.00363773
C       -0.00009000       9.94202000      10.18663473      -0.00028276      -0.00099873       0.00136804
C       -1.23002000      12.07234000      10.17127276      -0.01191837       0.01070945       0.00328071
C       -2.46005000      14.20280000      10.13683923      -0.00558248      -0.00642833      -0.00647032
C        7.37998000       1.42031000      10.15716950       0.00279924      -0.00643884      -0.00477804
C        6.14995000       3.55078000      10.14757954       0.00813023      -0.00048020       0.00556362
C        4.92001000       5.68109000      10.15723369      -0.00392822       0.00644288      -0.00475751
C        3.68999000       7.81156000      10.17295070       0.00011067      -0.00777496       0.00168175
C        2.45996000       9.94202000      10.18664901       0.00128674      -0.00139370       0.00118453
C        1.23002000      12.07234000      10.18669370      -0.00033936       0.00475833       0.00095946
C        0.00000000      14.20280000      10.17289528      -0.00654309       0.00408959       0.00183991
C        9.84002000       1.42031000      10.17520541      -0.00028896      -0.00033756       0.00915563
C        8.61000000       3.55078000      10.17889152       0.00129733      -0.00429604       0.00356408
C        7.38006000       5.68109000      10.17896410      -0.00099432      -0.00000090       0.00319151
C        6.15004000       7.81156000      10.17521189      -0.00068356      -0.00041253       0.00938452
C        4.92001000       9.94202000      10.17305830       0.00638241       0.00264344       0.00128118
C        3.69007000      12.07234000      10.17125197       0.01096342       0.00997508       0.00398336
C        2.46005000      14.20280000      10.17297407       0.00584325       0.00383261       0.00148830
C       12.29990000       1.42031000      10.15716949       0.00155632      -0.00680338      -0.00486322
C       11.06988000       3.55078000      10.17883115       0.00746576      -0.00441277       0.00362795
C        9.83994000       5.68109000      10.19012696       0.00429960       0.00031296      -0.00652659
C        8.60991000       7.81156000      10.17882041       0.00462803       0.00021924       0.00374948
C        7.37989000       9.94202000      10.15718550      -0.00267920      -0.00044575      -0.00465350
C        6.14995000      12.07234000      10.13693970       0.00117421       0.01207349      -0.00696416
C        4.91993000      14.20280000      10.13683277       0.01055220      -0.00722418      -0.00669475
C       14.75995000       1.42031000      10.10670156       0.00125093       0.02534336      -0.00518627
C       13.52993000       3.55078000      10.14760361      -0.00298869      -0.00047954       0.00556010
C       12.29999000       5.68109000      10.17894556       0.00061982       0.00033246       0.00328412
C       11.06996000       7.81156000      10.17886872       0.00022677       0.00064273       0.00365330
C        9.83994000       9.94202000      10.14764700      -0.00001089      -0.00711645       0.00518093
C        8.61000000      12.07234000      10.10674169       0.02201563      -0.00848518      -0.00513982
C        7.37998000      14.20280000      10.08869379      -0.15880193      -0.09157584       0.00580899
Li       1.22984316       0.70998553      11.99999984       0.00005102       0.00001605      -0.00000039
