13
Lattice="4.260799885 0.0 0.0 -2.130399942 3.689960941 0.0 0.0 0.0 24.0" Properties=species:S:1:pos:R:3:forces:R:3 energy=-113.51226806640625 free_energy=-113.51226806640625 stress="-0.009241673164069653 5.172107648832025e-06 -6.330375157403978e-08 5.172107648832025e-06 -0.00924687646329403 7.174138261234475e-08 -6.330375157403978e-08 7.174138261234475e-08 -0.0001614589273231104" pbc="T T T"
C        0.00000000       0.00000000      13.96254009      -0.09161445      -0.15856282       0.00304011
C       -0.00002000       2.45999000      13.96253987      -0.09119888       0.15910898       0.00302892
C        2.13042000       1.22997000      13.96254004       0.18206847       0.00098302       0.00304146
C        2.84053000       2.45999000      13.95815382      -0.00036880      -0.00067741      -0.00151881
C        0.71010000       1.23001000      13.98607989       0.00164748      -0.00054265       0.00991303
C        2.84055000       0.00000000      13.95815409      -0.00054264      -0.00031296      -0.00151891
C        0.00000000       0.00000000      10.06010342      -0.00650490      -0.01142606      -0.00582206
C       -0.00002000       2.45999000      10.06010106      -0.00488536       0.01006254      -0.00581944
C        2.13042000       1.22997000      10.06010260       0.01220147      -0.00018137      -0.00582308
C        3.55067000       1.22997000      10.06000164      -0.01218535       0.00071028       0.00080882
C        1.42025000       0.00000000      10.06000246       0.00680728      -0.01056672       0.00081278
C        1.42030000       2.45995000      10.06000004       0.00456667       0.01140669       0.00081107
Li       0.71013225       1.23002595      11.84968112       0.00000886      -0.00000171      -0.00095382
