13
Lattice="4.260799885 0.0 0.0 -2.130399942 3.689960941 0.0 0.0 0.0 24.0" Properties=species:S:1:pos:R:3:forces:R:3 energy=-113.51233673095703 free_energy=-113.51233673095703 stress="-0.009195261634886265 5.157231498742476e-06 7.208078045550792e-08 5.157231498742476e-06 -0.009200511500239372 5.0274699958663405e-09 7.208078045550792e-08 5.0274699958663405e-09 -8.551328392059077e-06" pbc="T T T"
C        0.00000000       0.00000000      13.96749715      -0.09201190      -0.15925914      -0.00381505
C       -0.00002000       2.45999000      13.96749739      -0.09159873       0.15980478      -0.00383684
C        2.13042000       1.22997000      13.96749436       0.18286967       0.00098022      -0.00378431
C        2.84053000       2.45999000      13.96290794      -0.00036343      -0.00066419       0.00197592
C        0.71010000       1.23001000      13.99010244       0.00164183      -0.00054234       0.00942799
C        2.84055000       0.00000000      13.96290876      -0.00054499      -0.00032268       0.00196529
C        0.00000000       0.00000000      10.05531042      -0.00569389      -0.01000337       0.00023212
C       -0.00002000       2.45999000      10.05531065      -0.00406696       0.00863156       0.00022440
C        2.13042000       1.22997000      10.05530611       0.01058535      -0.00017866       0.00024635
C        3.55067000       1.22997000      10.05543680      -0.01069172       0.00071380      -0.00005248
C        1.42025000       0.00000000      10.05543290       0.00607231      -0.00930740      -0.00002258
C        1.42030000       2.45995000      10.05543359       0.00382301       0.01013733      -0.00003468
Li       0.71016164       1.23001414      11.84936183      -0.00002084       0.00001020      -0.00252602
