197
Lattice="17.219999313 0.0 0.0 -8.609999657 14.912956858 0.0 0.0 0.0 24.0" Properties=species:S:1:pos:R:3:forces:R:3 energy=-1822.0517578125 free_energy=-1822.0517578125 stress="0.005029676016420126 0.00012346993025857955 -1.259651639884396e-06 0.00012346993025857955 0.004883587826043367 -7.506545784963237e-07 -1.259651639884396e-06 -7.506545784963237e-07 -3.192161238985136e-05" pbc="T T T"
C        0.00000000       0.00000000      13.67500000      -0.07853115      -0.36645311       0.00646888
C       -1.23002000       2.13047000      13.67500000      -0.35712838       0.11248416       0.00514417
C       14.76004000       4.26078000      13.67500000      -0.08262715       0.02125749      -0.03343976
C       13.53001000       6.39125000      13.67500000      -0.02008887      -0.00527141      -0.00056979
C       -4.92001000       8.52171000      13.67500000      -0.01408913      -0.00859887       0.01541230
C       11.06996000      10.65218000      13.67500000      -0.00925303      -0.00461018       0.00218628
C        9.84002000      12.78249000      13.67500000      -0.01110675      -0.08054491      -0.03182807
C        2.46005000       0.00000000      13.67500000       0.12343664      -0.00436382      -0.00766633
C        1.23002000       2.13047000      13.67500000       0.34662908       0.19857004       0.00625224
C        0.00009000       4.26078000      13.67500000       0.05476695       0.10745328      -0.01004458
C       -1.22994000       6.39125000      13.67500000       0.01510580       0.01057419       0.00016322
C       -2.45996000       8.52171000      13.67500000       0.01473180       0.00965914       0.02182233
C       -3.68999000      10.65218000      13.67500000       0.01849345       0.00986957       0.02234253
C       -4.91880004      12.78316520      13.67470516       0.00113308      -0.00027343       0.00230788
C        4.92120796       0.00107462      13.76133565      -0.00111708      -0.00073802       0.00247138
C        3.69424772       2.13299369      13.74682772       0.00115010       0.00003218       0.00444838
C        2.46436568       4.26329313      13.74519942       0.00119904      -0.00029479       0.00491885
C        1.23089854       6.39144160      13.75821350       0.00065860       0.00012322       0.00139667
C       -0.00067358       8.52082566      13.77359528       0.00033099       0.00339396      -0.00236716
C       -1.23077834      10.65154709      13.77961035      -0.00330460      -0.00139709       0.00333617
C       -2.46019347      12.78239068      13.77589747       0.00102980      -0.00079460      -0.00110221
C        7.37839938      -0.00069337      13.88927180      -0.00055103       0.00109342       0.00178259
C        6.15135459       2.13102743      13.87237302      -0.00099928       0.00076672       0.00569905
C        4.92282895       4.26229546      13.86163838      -0.00051949       0.00080935       0.00306859
C        3.69104588       6.39201595      13.86627192       0.00074548      -0.00084144       0.00651969
C        2.45839420       8.52045770      13.88206764       0.00208332      -0.00099228       0.00228920
C        1.22715166      10.65020489      13.89525771       0.00297570       0.00128911      -0.00007319
C       -0.00250650      12.78106136      13.89858297       0.00062229       0.00071964      -0.00127868
C        9.83810022      -0.00028049      13.93657236       0.00134066      -0.00009814      -0.00204508
C        8.61016930       2.13089032      13.93746800       0.00072142      -0.00037008      -0.00430127
C        7.38225902       4.26198134      13.93411454      -0.00169684      -0.00037411      -0.00243594
C        6.15206673       6.39231457      13.93063383      -0.00149737       0.00088658      -0.00097027
C        4.92047188       8.52144716      13.92995581      -0.00011774       0.00097780      -0.00238035
C        3.68861860      10.65058768      13.93054567       0.00160855      -0.00024944      -0.00058215
C        2.45804453      12.78131836      13.93406144       0.00009294      -0.00045346      -0.00437530
C       12.29690672      -0.00026720      13.86122711       0.00032719      -0.00188741       0.00341029
C       11.06922863       2.13120709      13.87298466       0.00091548      -0.00111579       0.00642647
C        9.84198837       4.26216409      13.88767932      -0.00122870      -0.00061912      -0.00226140
C        8.61273364       6.39285974      13.89199874      -0.00113688      -0.00076197       0.00340420
C        7.38220485       8.52267830      13.88558121      -0.00210302      -0.00101940      -0.00334042
C        6.15030859      10.65100899      13.87018166      -0.00110751       0.00109267       0.00563898
C        4.91841094      12.78005160      13.85997622      -0.00230478       0.00036137       0.00293094
C       14.75414418      -0.00345807      13.74449550       0.00041289       0.00113931       0.00813942
C       13.52622621       2.13084737      13.74830987      -0.00118165       0.00083823       0.00115296
C       12.29944941       4.26141995      13.76200158      -0.00057919       0.00032022       0.00561053
C       11.07051596       6.39185614      13.77352171       0.00136331       0.00047043       0.00224836
C        9.84090710       8.52202930      13.77399129       0.00023888      -0.00042968       0.00075761
C        8.61033684      10.65144544      13.76264610      -0.00143712      -0.00234920       0.00383325
C        7.37872093      12.77903544      13.74862850      -0.00083871      -0.00107354      -0.00007040
C        0.00015011       1.42038758      13.67987197       0.00012952       0.00009855      -0.00238231
C       -1.23074775       3.55339143      13.66523105       0.00010831       0.00005446      -0.00676595
C       -2.45994960       5.68145196      13.66368647       0.00001870       0.00012315      -0.00145297
C       -3.69004461       7.81152146      13.66208018      -0.00012783      -0.00016633       0.00633112
C       -4.92006776       9.94198630      13.66224688      -0.00021206      -0.00001427       0.00336561
C       -6.14898008      12.07264534      13.66333688       0.00079167       0.00032145      -0.00146955
C       -7.37805591      14.20077542      13.66529009      -0.00009279       0.00010235      -0.00985202
C        2.46585445       1.42140237      13.69067429       0.00090570       0.00059613      -0.00500022
C        1.23393969       3.55521949      13.69029645       0.00091795       0.00041410      -0.00543311
C        0.00112639       5.68173077      13.69436347       0.00026125       0.00018546       0.00240888
C       -1.22972580       7.81157137      13.70060355       0.00067170       0.00100842      -0.00001872
C       -2.45953618       9.94224888      13.70223217      -0.00254279      -0.00148821       0.00259875
C       -3.68895322      12.07273944      13.70085262       0.00091243      -0.00045071       0.00174284
C       -4.91833431      14.20405392      13.69491056      -0.00078429      -0.00047291       0.00330377
C        4.92324004       1.42125515      13.79344071       0.00063656      -0.00054001       0.00264236
C        3.69452958       3.55336562      13.78277162       0.00134218       0.00002465       0.00470828
C        2.46204946       5.68351993      13.78942064       0.00132050      -0.00013250       0.00327872
C        1.22956264       7.81108628      13.80784037       0.00065074       0.00114650       0.00016919
C       -0.00154967       9.94059136      13.82139015       0.00088785       0.00415129      -0.00006626
C       -1.23117101      12.07152879      13.82351235       0.00138252      -0.00070713      -0.00111124
C       -2.46017330      14.20270184      13.81237353      -0.00016242       0.00001071       0.00002957
C        7.38033000       1.41979278      13.91187867      -0.00027954       0.00163556      -0.00463657
C        6.15241368       3.55147509      13.89884763      -0.00164697       0.00044665       0.00091453
C        4.92170320       5.68265494      13.89499947       0.00016462      -0.00020217       0.00259280
C        3.68965344       7.81202190      13.90389823       0.00211301      -0.00115719      -0.00425173
C        2.45779521       9.94069715      13.91545595       0.00245996      -0.00073638      -0.00015920
C        1.22753366      12.07063345      13.92342184       0.00065972       0.00100217      -0.00267392
C       -0.00197687      14.20154924      13.92182264       0.00046704       0.00128831      -0.00086671
C        9.84024040       1.42039540      13.92720758       0.00047702      -0.00035325      -0.00061088
C        8.61244297       3.55153762      13.93230567      -0.00174728      -0.00051944      -0.00321965
C        7.38280126       5.68263363      13.93133913      -0.00220988      -0.00016040      -0.00283058
C        6.15195975       7.81296865      13.92728100      -0.00205271       0.00001530      -0.00241894
C        4.92006634       9.94203589      13.92085060       0.00050687       0.00009053       0.00181715
C        3.68862725      12.07118757      13.91856466      -0.00110848      -0.00083994      -0.00158081
C        2.45815807      14.20214110      13.92137886       0.00050238      -0.00113454      -0.00235287
C       12.29805069       1.41995167      13.82668075       0.00066185      -0.00164014       0.00359741
C       11.07116204       3.55158328      13.84318747      -0.00010538      -0.00057988       0.00219662
C        9.84232793       5.68241855      13.85576762       0.00091157       0.00049019       0.00130183
C        8.61246888       7.81293753      13.85536649      -0.00038699       0.00030006       0.00054981
C        7.38144814       9.94252964      13.84211112      -0.00222749      -0.00081148      -0.00006696
C        6.14891556      12.07089741      13.82574069      -0.00193570       0.00092927       0.00112521
C        4.91572475      14.20040914      13.81962247       0.00134950       0.00016534       0.00747016
C       14.75485268       1.41851511      13.71334857      -0.00031953       0.00140180       0.00076370
C       13.52898355       3.55148180      13.72024285      -0.00026050       0.00092418       0.00205593
C       12.29999314       5.68178539      13.72976292       0.00098766       0.00009441       0.00490476
C       11.07057510       7.81188457      13.73521312       0.00053052       0.00025384      -0.00444097
C        9.84063939       9.94180031      13.73044344       0.00015849      -0.00010814       0.00372783
C        8.61034390      12.07112991      13.72077910      -0.00012629      -0.00169910       0.00180200
C        7.37598153      14.19916984      13.71343626       0.00027738      -0.00022354       0.00179198
C       -0.00042077      -0.01489824       9.69039695       0.00009047       0.00474648      -0.00139266
C       -1.24309138       2.13745461       9.68923920       0.00414345      -0.00228407      -0.00130646
C       14.75303722       4.26973264       9.85269983      -0.00004397      -0.00234089       0.00056655
C       13.52841362       6.39364931      10.04824121      -0.00121128       0.00135079      -0.00072274
C       -4.91993997       8.52171203      10.13442682       0.00012477       0.00006571      -0.00222884
C       11.07122338      10.64956585      10.05045124       0.00061325      -0.00169789      -0.00076068
C        9.84418060      12.77209684       9.85535898      -0.00200534       0.00125327       0.00061598
C        2.47737268      -0.00947380       9.78507101      -0.00658756       0.00370561       0.00173601
C        1.24301728       2.13789094       9.69117928      -0.00413226      -0.00236256      -0.00102166
C        0.00049668       4.28067260       9.78208550      -0.00011228      -0.00755987       0.00186957
C       -1.23096202       6.39749121       9.97045870      -0.00039319      -0.00004092      -0.00434860
C       -2.45980137       8.52228259      10.12067320      -0.00000756       0.00102283      -0.00317125
C       -3.68940758      10.65199988      10.12234122       0.00091359      -0.00052926      -0.00318132
C       -4.91518043      12.77867075       9.97418908      -0.00023827      -0.00030884      -0.00425444
C        4.92580958      -0.00150429       9.99252962       0.00047418       0.00039240      -0.00289068
C        3.70141052       2.13204614       9.87132174      -0.00191428       0.00135273       0.00315830
C        2.46713813       4.26996705       9.86957266       0.00020422      -0.00233915       0.00339625
C        1.23159363       6.39719513       9.98864582       0.00066895       0.00015818      -0.00275843
C        0.00003411       8.52169520      10.13501160       0.00022037      -0.00055562      -0.00070043
C       -1.23022467      10.65199162      10.20038959      -0.00091954      -0.00051984      -0.00378728
C       -2.46003151      12.78263605      10.13814672      -0.00030523       0.00046363      -0.00089012
C        7.37978444      -0.00009612      10.16748905       0.00117143      -0.00065668      -0.00103720
C        6.15208572       2.13053275      10.09166025       0.00209213       0.00056315       0.00255630
C        4.92242552       4.26228513      10.05672997       0.00184199       0.00104989      -0.00143814
C        3.69111830       6.39310229      10.08938971       0.00153256       0.00150691       0.00247838
C        2.45974166       8.52161134      10.16459730       0.00007548       0.00129617      -0.00107799
C        1.22984621      10.65182309      10.22410019       0.00123108      -0.00065216      -0.00272629
C       -0.00032385      12.78260302      10.22543163       0.00003741       0.00128830      -0.00283484
C        9.83993197      -0.00001625      10.17539513      -0.00126868      -0.00098827      -0.00056262
C        8.60991616       2.13037891      10.18978702      -0.00002689      -0.00018307       0.00045919
C        7.37971463       4.26083905      10.19959885      -0.00074387      -0.00016204      -0.00164558
C        6.14981515       6.39104282      10.19904689      -0.00048485      -0.00053735      -0.00180514
C        4.91985088       8.52162637      10.18846048      -0.00018167       0.00008006       0.00012073
C        3.68987717      10.65205816      10.17423666      -0.00142843      -0.00054362      -0.00076277
C        2.46023930      12.78270248      10.16775833      -0.00002590      -0.00003518       0.00087872
C       12.29433440      -0.00180692      10.00873096      -0.00054402       0.00015921      -0.00104771
C       11.06768925       2.13057364      10.09030140      -0.00205681       0.00038097       0.00192307
C        9.84024794       4.26102457      10.19005543       0.00058592      -0.00016693      -0.00242103
C        8.61018991       6.39136966      10.23322454      -0.00026700      -0.00020316      -0.00035100
C        7.38022771       8.52176918      10.19010795       0.00014587       0.00064712      -0.00243647
C        6.14891806      10.64999623      10.09021098      -0.00067751      -0.00190539       0.00205542
C        4.91556591      12.77854340      10.00864797      -0.00013822      -0.00055511      -0.00099900
C       14.74213500      -0.01032053       9.79613063       0.00654418       0.00375488       0.00410721
C       13.51829937       2.13142070       9.86873466       0.00215295       0.00140915       0.00220243
C       12.29702365       4.26239926      10.03550620      -0.00144694       0.00089474      -0.00420062
C       11.06990374       6.39129954      10.16588465       0.00057682      -0.00059369      -0.00367181
C        9.83996192       8.52155067      10.16654233      -0.00022147       0.00084259      -0.00375449
C        8.60980978      10.64873520      10.03682841       0.00009698      -0.00154854      -0.00409100
C        7.37500297      12.77189404       9.86967820       0.00229957       0.00118984       0.00237256
C        1.24248589       0.70280027       9.68982977      -0.00413785       0.00244936      -0.00110399
C       -0.00007351       2.85498569       9.68831375       0.00000124      -0.00477444      -0.00093402
C       -1.23447808       4.98130043       9.85067538       0.00205938      -0.00136784       0.00075098
C       -2.46139439       7.10393663      10.04577874      -0.00051311       0.00167037      -0.00054751
C       -3.69012733       9.23175518      10.13216159      -0.00015779      -0.00006468      -0.00240263
C       -4.91857610      11.35982056      10.04856842       0.00122743      -0.00125615      -0.00047969
C       -6.14336986      13.48369348       9.85411765      -0.00013159       0.00246843       0.00080015
C        3.70137543       0.70904007       9.86610074      -0.00227420      -0.00135538       0.00222094
C        2.47733493       2.85054334       9.79212859      -0.00654155      -0.00375856       0.00397965
C        1.23476385       4.98146499       9.86290929      -0.00232843      -0.00133348       0.00242409
C        0.00007629       7.10483166      10.02849202      -0.00015173       0.00142117      -0.00367029
C       -1.23001147       9.23199212      10.15903985       0.00022229      -0.00093296      -0.00374262
C       -2.45991113      11.36221095      10.16081262      -0.00067695       0.00055456      -0.00383992
C       -3.68711359      13.49111985      10.03245377       0.00116545      -0.00083706      -0.00373543
C        6.15214600       0.71002056      10.08667377       0.00190127      -0.00049697       0.00223128
C        4.92544193       2.84232587      10.00378260       0.00049180      -0.00024903      -0.00060962
C        3.69425787       4.97485870      10.00230783      -0.00000045       0.00045489      -0.00052321
C        2.46095149       7.10341758      10.08337474       0.00049731       0.00185421       0.00222199
C        1.22962810       9.23164996      10.18411454      -0.00018136      -0.00072325      -0.00240459
C       -0.00032159      11.36209648      10.22877454       0.00022423       0.00017931      -0.00009579
C       -1.23037432      13.49252402      10.18681617      -0.00073289       0.00009000      -0.00261003
C        8.60978871       0.71022367      10.18964042       0.00005522       0.00015170       0.00045413
C        7.37978094       2.84059218      10.17317337       0.00118026       0.00087191       0.00053584
C        6.14952130       4.97072017      10.16468406      -0.00004146      -0.00004403       0.00183947
C        4.91988330       7.10120335      10.17175200       0.00129933       0.00060658       0.00021984
C        3.68990632       9.23160372      10.18776899       0.00018147      -0.00002919       0.00015883
C        2.45997463      11.36232055      10.19985972       0.00053653       0.00069328      -0.00186270
C        1.23004998      13.49267176      10.20074001       0.00083881       0.00009486      -0.00182053
C       11.06768600       0.71008279      10.09548464      -0.00204005      -0.00063962       0.00284883
C        9.83996690       2.84071487      10.16971112      -0.00122979       0.00057676      -0.00000285
C        8.61009254       4.97087143      10.22738186      -0.00000863      -0.00130909      -0.00170708
C        7.37993186       7.10150416      10.22724964      -0.00119013       0.00071681      -0.00183447
C        6.15006962       9.23167518      10.16928731      -0.00005076      -0.00125493      -0.00006944
C        4.91875787      11.36027087      10.09503806      -0.00163025      -0.00142340       0.00284689
C        3.68743621      13.49121781      10.06188513      -0.00179508      -0.00104936      -0.00098773
C       13.51825401       0.70842703       9.87532534       0.00186481      -0.00133124       0.00374575
C       12.29400152       2.84208715       9.99576154      -0.00061953      -0.00056219      -0.00238623
C       11.06998261       4.97089845      10.14209551       0.00022794      -0.00050078      -0.00011533
C        9.84018435       7.10147975      10.20648579       0.00084431       0.00055691      -0.00288723
C        8.60988555       9.23180703      10.14286662      -0.00022669       0.00038686      -0.00014788
C        7.37830206      11.35628253       9.99654701      -0.00077125      -0.00023925      -0.00213772
C        6.14264323      13.48337086       9.87563160      -0.00025965       0.00232315       0.00387432
C       15.97638924       0.70224540       9.69277845       0.00423740       0.00247981      -0.00013588
C       14.74217892       2.84987235       9.78520513       0.00655669      -0.00369321       0.00226931
C       13.52499145       4.97480205       9.97450948       0.00016800       0.00028322      -0.00401233
C       12.29936608       7.10146558      10.12482987      -0.00098330       0.00052292      -0.00256634
C       11.06972279       9.23121513      10.12589590      -0.00005830      -0.00111169      -0.00268605
C        9.84075978      11.35602700       9.97678043       0.00033391      -0.00008582      -0.00398773
C        8.60916692      13.47259898       9.78694147       0.00008579       0.00753761       0.00227249
Li      -0.00379382       1.41906790      11.50393140      -0.00032651      -0.00017080       0.00615489
