13
Lattice="4.260799885 0.0 0.0 -2.130399942 3.689960941 0.0 0.0 0.0 24.0" Properties=species:S:1:pos:R:3:forces:R:3 energy=-113.60126495361328 free_energy=-113.60126495361328 stress="-0.009763344191014767 1.0998855032084975e-05 7.662012357911863e-09 1.0998855032084975e-05 -0.009790158830583096 -1.936166560412289e-09 7.662012357911863e-09 -1.936166560412289e-09 7.566011959170282e-07" pbc="T T T"
C       -0.00007823      -0.00017822      13.88107087      -0.00123287       0.00161198      -0.00008997
C        0.00022441       2.45995347      13.88106157      -0.00194163       0.00163926       0.00006196
C        2.13032439       1.23016901      13.88107157      -0.00095142       0.00008627      -0.00008367
C        2.84033446       2.46000174      13.88107191       0.00166198      -0.00107414      -0.00007600
C        0.71022293       1.23017302      13.88106386       0.00104660      -0.00164270       0.00006455
C        2.84060638      -0.00014302      13.88106312       0.00135832      -0.00064915       0.00004698
C       -0.00007823      -0.00017808      10.11892912      -0.00123468       0.00160793       0.00008416
C        0.00022403       2.45995375      10.11893851      -0.00192093       0.00161926      -0.00006734
C        2.13032398       1.23016902      10.11892867      -0.00091753       0.00008591       0.00006734
C        2.84033459       2.46000176      10.11892812       0.00164407      -0.00107926       0.00008136
C        0.71022333       1.23017280      10.11893606       0.00101357      -0.00162215      -0.00004861
C        2.84060643      -0.00014315      10.11893657       0.00135706      -0.00063972      -0.00004074
Li       1.42019147       2.45995782      11.99999982       0.00011714       0.00005672       0.00000006
