13
Lattice="4.260799885 0.0 0.0 -2.130399942 3.689960941 0.0 0.0 0.0 24.0" Properties=species:S:1:pos:R:3:forces:R:3 energy=-113.60124969482422 free_energy=-113.60124969482422 stress="-0.009796247817575932 2.922257635873393e-08 1.584008035848683e-09 2.922257635873393e-08 -0.009796510450541973 -2.4292534650527386e-10 1.584008035848683e-09 -2.4292534650527386e-10 -8.668308873893693e-05" pbc="T T T"
C       -0.00013196      -0.00018662      13.87902116       0.00171783       0.00229207       0.00133498
C        0.00024792       2.45996092      13.87899847      -0.00304593       0.00042826       0.00162931
C        2.13030364       1.23021647      13.87901837       0.00123171      -0.00272955       0.00137793
C        2.84034734       2.46000388      13.87902305       0.00212886      -0.00026684       0.00130495
C        0.71025588       1.23014860      13.87900591      -0.00145966      -0.00156918       0.00154974
C        2.84061457      -0.00016139      13.87900701      -0.00064251       0.00181405       0.00150707
C       -0.00013214      -0.00018658      10.12097879       0.00173166       0.00229211      -0.00133401
C        0.00024783       2.45996084      10.12100163      -0.00303300       0.00042889      -0.00163853
C        2.13030339       1.23021652      10.12098171       0.00124578      -0.00272371      -0.00139739
C        2.84034748       2.46000399      10.12097686       0.00211189      -0.00027595      -0.00129150
C        0.71025595       1.23014846      10.12099409      -0.00146644      -0.00156682      -0.00153711
C        2.84061472      -0.00016145      10.12099296      -0.00065971       0.00181437      -0.00150444
Li       1.42018527       2.45994638      11.99999994       0.00013940       0.00006234      -0.00000096
