17
Lattice="4.920000076 0.0 0.0 -2.460000038 4.260845053 0.0 0.0 0.0 24.0" Properties=species:S:1:pos:R:3:MACE_forces:R:3 MACE_energy=-150.42018038226198 pbc="T T T"
C        0.00000000       0.00000000      13.90000000      -0.00175009      -0.27077819      -0.03740956
C        3.69000000       2.13042000      13.90000000      -0.23723973       0.13703342      -0.03741132
C        2.46000000       0.00000000      13.90000000      -0.00187329       0.00097838       0.04324143
C        1.23000000       2.13042000      13.90000000       0.23353798       0.13691675      -0.03740581
C       -0.00005000       1.42031000      13.90000000       0.00189152      -0.00115204       1.29769857
C       -1.23005000       3.55073000      13.90000000       0.09239684       0.05137525      -0.01311402
C        2.45995000       1.42031000      13.90000000       0.00179589      -0.10571710      -0.01311253
C        1.22995000       3.55073000      13.90000000      -0.08878243       0.05136269      -0.01309330
C        0.00000000       0.00000000      10.10000000       0.00086794      -0.24486650      -0.00211212
C        3.69000000       2.13042000      10.10000000      -0.21062723       0.12153354      -0.00214157
C        2.46000000       0.00000000      10.10000000       0.00091373      -0.00151863       0.08834171
C        1.23000000       2.13042000      10.10000000       0.21248569       0.12055937      -0.00214235
C        1.23005000       0.71011000      10.10000000       0.20833469      -0.12108972       0.00234219
C        0.00005000       2.84053000      10.10000000      -0.00255647       0.24416057       0.00233608
C        3.69000000       0.71011000      10.10000000      -0.21012814      -0.12028957       0.00232324
C        2.46000000       2.84053000      10.10000000       0.00069564       0.00153974       0.09415950
Li      -0.00005000       1.42031000      12.00000000       0.00003747      -0.00004795      -1.37250016
49
Lattice="8.52159977 0.0 0.0 -4.260799885 7.379921881 0.0 0.0 0.0 24.0" Properties=species:S:1:pos:R:3:MACE_forces:R:3 MACE_energy=-447.886492058193 pbc="T T T"
C        0.00000000       0.00000000      13.80648000      -0.08753437      -0.15193129      -0.00477139
C       -2.13040000       3.68996000      13.78778000      -0.00892812      -0.04148589       0.01767036
C        4.26080000       0.00000000      13.77986000      -0.03225980      -0.02837843       0.02665311
C        2.13040000       3.68996000      13.83736000       0.11599397       0.19955450       0.02560584
C        0.00000000       2.46002000      13.83475000      -0.23153951      -0.00261876       0.02031429
C       -2.13040000       6.14998000      13.78317000       0.04318511       0.01187068       0.01535212
C        4.26080000       2.46002000      13.80460000       0.17764680      -0.00326796       0.00708044
C        2.13040000       6.14998000      13.79014000       0.04275241      -0.01486534       0.01063617
C        2.13044000       1.23001000      13.83401000       0.11740290      -0.20714456       0.00753746
C        0.00004000       4.91997000      13.79131000      -0.08765770       0.14966094       0.03487744
C        6.39124000       1.23001000      13.79009000      -0.01261657       0.04415536       0.01379224
C        4.26084000       4.91997000      13.79650000      -0.03363349       0.03142889       0.00615270
C        7.10130000       2.46002000      13.80053000      -0.17373973      -0.00094123       0.02387325
C       -3.55069000       6.14998000      13.79197000      -0.04005368       0.01167107       0.02703601
C        2.84050000       2.46002000      13.83769000       0.23316752      -0.00022770       0.00803946
C        0.71010000       6.14998000      13.77993000      -0.03983592      -0.01533851       0.03855459
C        0.71015000       1.23001000      13.83745000      -0.11537324      -0.19782681       0.00828912
C       -1.42025000       4.91997000      13.78074000       0.03306619       0.03012830       0.03480439
C        4.97095000       1.23001000      13.78746000       0.00923067       0.04388679       0.02025883
C        2.84055000       4.91997000      13.80724000       0.08748212       0.15562893       0.00366286
C        2.84059000       0.00000000      13.79167000       0.08445112      -0.14800878       0.04935145
C        0.71019000       3.68996000      13.83310000      -0.12152493       0.20817226      -0.00109878
C        7.10139000       0.00000000      13.79173000       0.03064531      -0.03073321       0.03199545
C        4.97099000       3.68996000      13.79370000       0.00876415      -0.04287954       0.01881146
C        0.00000000       0.00000000      10.19352000      -0.08753437      -0.15193129       0.00477139
C       -2.13040000       3.68996000      10.21222000      -0.00892812      -0.04148589      -0.01767036
C        4.26080000       0.00000000      10.22014000      -0.03225980      -0.02837843      -0.02665311
C        2.13040000       3.68996000      10.16264000       0.11599397       0.19955450      -0.02560584
C        0.00000000       2.46002000      10.16525000      -0.23153951      -0.00261876      -0.02031429
C       -2.13040000       6.14998000      10.21683000       0.04318511       0.01187068      -0.01535212
C        4.26080000       2.46002000      10.19540000       0.17764680      -0.00326796      -0.00708044
C        2.13040000       6.14998000      10.20986000       0.04275241      -0.01486534      -0.01063617
C        2.13044000       1.23001000      10.16599000       0.11740290      -0.20714456      -0.00753746
C        0.00004000       4.91997000      10.20869000      -0.08765770       0.14966094      -0.03487744
C        6.39124000       1.23001000      10.20991000      -0.01261657       0.04415536      -0.01379224
C        4.26084000       4.91997000      10.20350000      -0.03363349       0.03142889      -0.00615270
C        7.10130000       2.46002000      10.19947000      -0.17373973      -0.00094123      -0.02387325
C       -3.55069000       6.14998000      10.20803000      -0.04005368       0.01167107      -0.02703601
C        2.84050000       2.46002000      10.16231000       0.23316752      -0.00022770      -0.00803946
C        0.71010000       6.14998000      10.22007000      -0.03983592      -0.01533851      -0.03855459
C        0.71015000       1.23001000      10.16255000      -0.11537324      -0.19782681      -0.00828912
C       -1.42025000       4.91997000      10.21926000       0.03306619       0.03012830      -0.03480439
C        4.97095000       1.23001000      10.21254000       0.00923067       0.04388679      -0.02025883
C        2.84055000       4.91997000      10.19276000       0.08748212       0.15562893      -0.00366286
C        2.84059000       0.00000000      10.20833000       0.08445112      -0.14800878      -0.04935145
C        0.71019000       3.68996000      10.16690000      -0.12152493       0.20817226       0.00109878
C        7.10139000       0.00000000      10.20827000       0.03064531      -0.03073321      -0.03199545
C        4.97099000       3.68996000      10.20630000       0.00876415      -0.04287954      -0.01881146
Li       1.42053000       2.46045000      12.00000000       0.00181760      -0.00101945       0.00000000
49
Lattice="8.52159977 0.0 0.0 -4.260799885 7.379921881 0.0 0.0 0.0 24.0" Properties=species:S:1:pos:R:3:MACE_forces:R:3 MACE_energy=-447.84506432679706 pbc="T T T"
C        0.00000000       0.00000000      13.89314000      -0.13495467      -0.23398180       0.01237674
C       -2.13040000       3.68996000      13.78919000       0.01852131      -0.01642872       0.04162782
C        4.26080000       0.00000000      13.78920000      -0.02353911       0.00777805       0.04164573
C        2.13040000       3.68996000      13.82732000       0.04601149       0.07968695      -0.00868053
C        0.00000000       2.46002000      13.89338000      -0.13640536       0.23513833       0.00412776
C       -2.13040000       6.14998000      13.82919000       0.04663153      -0.08124701      -0.04514314
C        4.26080000       2.46002000      13.78879000      -0.02549405      -0.00762225       0.05234160
C        2.13040000       6.14998000      13.78954000       0.01750593       0.01755297       0.05378660
C        2.13044000       1.23001000      13.89341000       0.27181701      -0.00054895       0.00409402
C        0.00004000       4.91997000      13.78877000       0.00613068      -0.02585007       0.05234203
C        6.39124000       1.23001000      13.82916000      -0.09354072      -0.00046629      -0.04508252
C        4.26084000       4.91997000      13.78955000       0.00651807       0.02400541       0.05382997
C        7.10130000       2.46002000      13.83869000      -0.12465502       0.05017263       0.01432655
C       -3.55069000       6.14998000      13.83969000       0.02190538      -0.13915275       0.00295616
C        2.84050000       2.46002000      13.83952000       0.11249334       0.08408852      -0.00871660
C        0.71010000       6.14998000      13.77594000       0.00308263      -0.00158037       0.01697657
C        0.71015000       1.23001000      13.96097000      -0.00047336      -0.00023180      -0.06531577
C       -1.42025000       4.91997000      13.79304000      -0.01639965       0.02797126       0.01598838
C        4.97095000       1.23001000      13.79304000       0.03218452      -0.00006399       0.01599979
C        2.84055000       4.91997000      13.79472000      -0.01521096      -0.02604164      -0.01177804
C        2.84059000       0.00000000      13.83873000       0.10591445      -0.08327044       0.01418662
C        0.71019000       3.68996000      13.83949000       0.01656877       0.13905551      -0.00859930
C        7.10139000       0.00000000      13.83967000      -0.13168801      -0.05052704       0.00295859
C        4.97099000       3.68996000      13.77595000      -0.00295894       0.00153666       0.01697437
C        0.00000000       0.00000000      10.12869000      -0.14814341      -0.25764220       0.00059037
C       -2.13040000       3.68996000      10.20190000       0.04009077       0.03234164      -0.00187679
C        4.26080000       0.00000000      10.20165000       0.00870969       0.05018442      -0.00148685
C        2.13040000       3.68996000      10.17972000       0.09795544       0.16888449       0.01318107
C        0.00000000       2.46002000      10.12924000      -0.14767325       0.25726098       0.00184812
C       -2.13040000       6.14998000      10.18110000       0.09854076      -0.16937218       0.01279371
C        4.26080000       2.46002000      10.20295000       0.00950348      -0.05207851      -0.01981703
C        2.13040000       6.14998000      10.20200000       0.04114804      -0.03378379      -0.02028836
C        2.13044000       1.23001000      10.12901000       0.29848417      -0.00118246       0.00202787
C        0.00004000       4.91997000      10.20291000      -0.04817267      -0.01942916      -0.01979555
C        6.39124000       1.23001000      10.18137000      -0.19415575      -0.00116927       0.01239183
C        4.26084000       4.91997000      10.20201000      -0.04837509       0.01690589      -0.02024891
C        7.81145000       1.23001000      10.12961000      -0.28890661      -0.00054841      -0.00655485
C       -2.84055000       4.91997000      10.20308000       0.05073702       0.01870265      -0.03450595
C        3.55065000       1.23001000      10.18069000       0.18890776      -0.00018189       0.00266138
C        1.42025000       4.91997000      10.20209000       0.05087611      -0.01984136      -0.02531881
C        1.42030000       0.00000000      10.12936000       0.14469850      -0.25122015      -0.00631133
C       -0.71010000       3.68996000      10.18091000      -0.09392619       0.16260883       0.00236325
C        5.68109000       0.00000000      10.20309000      -0.00798479       0.05247906      -0.03455688
C        3.55069000       3.68996000      10.20212000      -0.04142011       0.03340552      -0.02538156
C        1.42034000       2.45995000      10.12900000       0.14138369       0.25333959      -0.00499038
C       -0.71006000       6.14991000      10.20343000      -0.04450402      -0.02994913      -0.03682299
C        5.68114000       2.45995000      10.20371000      -0.01067827      -0.04950706      -0.03716177
C        3.55074000       6.14991000      10.17927000      -0.09707470      -0.16018212       0.01589204
Li       0.71033000       1.22996000      11.88103000       0.00001415       0.00000146       0.00814498
29
Lattice="6.508500099 0.0 0.0 -3.25425005 5.636526426 0.0 0.0 0.0 24.0" Properties=species:S:1:pos:R:3:MACE_forces:R:3 MACE_energy=-262.0927918529141 pbc="T T T"
C        0.00000000       0.00000000      13.83444000      -0.06821842      -0.14929396       0.01177850
C       -0.46487000       2.41565000      13.85244000      -0.21518248      -0.03333783       0.00238780
C       -0.92980000       4.83129000      13.83335000      -0.09645384       0.13480623       0.02208150
C        1.85958000       1.61041000      13.85312000       0.13675290      -0.16605254      -0.00500005
C        1.39467000       4.02611000      13.84987000       0.07662520       0.20117616       0.01409312
C        4.18405000       0.80523000      13.83120000      -0.00155643      -0.00073451       0.02548183
C        3.71912000       3.22088000      13.83265000       0.16567102       0.01689853       0.02057580
C       -2.32448000       4.56294000      13.83092000      -0.00021640      -0.00167258       0.03540674
C        0.46490000       1.34206000      13.85344000      -0.07698706      -0.20370767       0.00332167
C       -0.00003000       3.75770000      13.85123000      -0.13504112       0.16714451       0.00507461
C        2.78935000       0.53682000      13.83377000       0.09695860      -0.13425103       0.02464827
C        2.32448000       2.95247000      13.85055000       0.21228089       0.03445559       0.01488273
C        1.85954000       5.36812000      13.83226000       0.06906426       0.15094491       0.03066042
C        4.64892000       2.14723000      13.83322000      -0.16316545      -0.01518424       0.02688984
C        0.00000000       0.00000000      10.16556000      -0.06821842      -0.14929396      -0.01177850
C       -0.46487000       2.41565000      10.14756000      -0.21518248      -0.03333783      -0.00238780
C       -0.92980000       4.83129000      10.16665000      -0.09645384       0.13480623      -0.02208150
C        1.85958000       1.61041000      10.14688000       0.13675290      -0.16605254       0.00500005
C        1.39467000       4.02611000      10.15013000       0.07662520       0.20117616      -0.01409312
C        4.18405000       0.80523000      10.16880000      -0.00155643      -0.00073451      -0.02548183
C        3.71912000       3.22088000      10.16735000       0.16567102       0.01689853      -0.02057580
C       -2.32448000       4.56294000      10.16908000      -0.00021640      -0.00167258      -0.03540674
C        0.46490000       1.34206000      10.14656000      -0.07698706      -0.20370767      -0.00332167
C       -0.00003000       3.75770000      10.14877000      -0.13504112       0.16714451      -0.00507461
C        2.78935000       0.53682000      10.16623000       0.09695860      -0.13425103      -0.02464827
C        2.32448000       2.95247000      10.14945000       0.21228089       0.03445559      -0.01488273
C        1.85954000       5.36812000      10.16774000       0.06906426       0.15094491      -0.03066042
C        4.64892000       2.14723000      10.16678000      -0.16316545      -0.01518424      -0.02688984
Li       0.92971000       2.68334000      12.00000000      -0.00106333      -0.00238312       0.00000000
49
Lattice="8.52159977 0.0 0.0 -4.260799885 7.379921881 0.0 0.0 0.0 24.0" Properties=species:S:1:pos:R:3:MACE_forces:R:3 MACE_energy=-447.83279263048263 pbc="T T T"
C        0.00000000       0.00000000      13.86664000      -0.13469326      -0.23372633       0.00544610
C       -2.13040000       3.68996000      13.77139000       0.01603441      -0.01294833       0.02950838
C        4.26080000       0.00000000      13.77146000      -0.01946875       0.00736147       0.02939185
C        2.13040000       3.68996000      13.80268000       0.04628448       0.08019909       0.00905532
C        0.00000000       2.46002000      13.86738000      -0.13650612       0.23369393       0.01009829
C       -2.13040000       6.14998000      13.80214000       0.04542834      -0.07894775       0.00640520
C        4.26080000       2.46002000      13.77394000      -0.01856886      -0.00657367       0.00499299
C        2.13040000       6.14998000      13.77148000       0.01503706       0.01283260       0.02158744
C        2.13044000       1.23001000      13.86750000       0.27109116      -0.00149929       0.01004656
C        0.00004000       4.91997000      13.77321000       0.00364505      -0.01997108       0.01382603
C        6.39124000       1.23001000      13.80200000      -0.09094327      -0.00037009       0.00553974
C        4.26084000       4.91997000      13.77134000       0.00374754       0.01983146       0.02332189
C        7.10130000       2.46002000      13.81528000      -0.12741484       0.04753695       0.01237265
C       -3.55069000       6.14998000      13.81466000       0.02501950      -0.13772724       0.01454458
C        2.84050000       2.46002000      13.81641000       0.11002125       0.08775349       0.01488482
C        0.71010000       6.14998000      13.76071000       0.00265783      -0.00176855       0.01103820
C        0.71015000       1.23001000      13.93309000      -0.00086819      -0.00174674       0.00976825
C       -1.42025000       4.91997000      13.77257000      -0.01453003       0.02511534       0.03146022
C        4.97095000       1.23001000      13.77255000       0.02849217       0.00004177       0.03550962
C        2.84055000       4.91997000      13.77186000      -0.01501855      -0.02580288       0.03608221
C        2.84059000       0.00000000      13.81545000       0.10467936      -0.08663554       0.01236267
C        0.71019000       3.68996000      13.81634000       0.02106852       0.13943397       0.01078755
C        7.10139000       0.00000000      13.81457000      -0.13190953      -0.04717487       0.01535773
C        4.97099000       3.68996000      13.76070000      -0.00304063       0.00092483       0.01427859
C        0.00000000       0.00000000      10.14638000      -0.15627550      -0.27216848      -0.00185484
C       -2.13040000       3.68996000      10.22617000       0.04341729       0.03225593      -0.02350353
C        4.26080000       0.00000000      10.22613000       0.00759975       0.05278952      -0.01850455
C        2.13040000       3.68996000      10.20523000       0.09442983       0.16239975      -0.02003911
C        0.00000000       2.46002000      10.14471000      -0.15574611       0.27051639      -0.00269173
C       -2.13040000       6.14998000      10.20661000       0.09480933      -0.16306588      -0.02100052
C        4.26080000       2.46002000      10.22682000       0.00841951      -0.05442920      -0.02428464
C        2.13040000       6.14998000      10.22650000       0.04327073      -0.03381613      -0.02404589
C        2.13044000       1.23001000      10.14632000       0.31365686      -0.00192002      -0.00109316
C        0.00004000       4.91997000      10.22609000      -0.04937208      -0.02216480      -0.01881569
C        6.39124000       1.23001000      10.20230000      -0.18984796      -0.00106296      -0.01038286
C        4.26084000       4.91997000      10.22593000      -0.04919515       0.01869773       0.00151549
C        7.81145000       1.23001000      10.14527000      -0.30372189      -0.00096390      -0.01070017
C       -2.84055000       4.91997000      10.22772000       0.05181979       0.02003027      -0.03121566
C        3.55065000       1.23001000      10.20342000       0.18544563      -0.00021994      -0.00611211
C        1.42025000       4.91997000      10.22656000       0.05161584      -0.02124787      -0.02291896
C        1.42030000       0.00000000      10.14765000       0.15297880      -0.26615842      -0.00981310
C       -0.71010000       3.68996000      10.20192000      -0.09294815       0.16035886      -0.00034300
C        5.68109000       0.00000000      10.22499000      -0.00692525       0.05429540      -0.01817053
C        3.55069000       3.68996000      10.22765000      -0.04336192       0.03358261      -0.03425828
C        1.42034000       2.45995000      10.14623000       0.15081084       0.26932311      -0.00702214
C       -0.71006000       6.14991000      10.22793000      -0.04588162      -0.03059356      -0.03193156
C        5.68114000       2.45995000      10.22562000      -0.00997125      -0.05127215      -0.02489721
C        3.55074000       6.14991000      10.20427000      -0.09448351      -0.15545338      -0.01966652
Li       0.71034000       1.23144000      11.87627000      -0.00078846       0.00045459      -0.00591660
29
Lattice="6.508500099 0.0 0.0 -3.25425005 5.636526426 0.0 0.0 0.0 24.0" Properties=species:S:1:pos:R:3:MACE_forces:R:3 MACE_energy=-262.02304850864 pbc="T T T"
C        0.00000000       0.00000000      13.88389000      -0.06211268      -0.24085059       0.03988606
C       -0.46487000       2.41565000      13.88782000      -0.18328916       0.17825400       0.00466913
C       -0.92980000       4.83129000      13.85780000       0.03086020      -0.07442622       0.01770980
C        1.85958000       1.61041000      13.88802000       0.24508198       0.07137860       0.00538747
C        1.39467000       4.02611000      13.85753000       0.05000289       0.06390375       0.01700985
C        4.18405000       0.80523000      13.85760000      -0.08293636       0.01046213       0.01688901
C        3.71912000       3.22088000      13.84706000       0.00160265      -0.00008006       0.01744615
C       -2.32448000       4.56294000      13.85981000       0.05199045      -0.09041596       0.01206221
C        0.46490000       1.34206000      13.93429000      -0.00086766      -0.00453991       0.02898567
C       -0.00003000       3.75770000      13.86189000      -0.00199513       0.14914290       0.02924814
C        2.78935000       0.53682000      13.86202000       0.13156517      -0.07294585       0.02448918
C        2.32448000       2.95247000      13.86062000       0.04848380       0.08712178       0.02309797
C        1.85954000       5.36812000      13.86043000      -0.12811012      -0.07812734       0.01975514
C        4.64892000       2.14723000      13.86051000      -0.10037869       0.00124805       0.02418541
C        0.00000000       0.00000000      10.12748000      -0.09706949      -0.26270759      -0.04304101
C       -0.46487000       2.41565000      10.12426000      -0.17913457       0.21557368      -0.01378334
C       -0.92980000       4.83129000      10.14972000       0.11254659      -0.15047377      -0.01904181
C        1.85958000       1.61041000      10.12439000       0.27521831       0.04646591      -0.01887103
C        1.39467000       4.02611000      10.15049000       0.07590398       0.17092458      -0.02346283
C        4.18405000       0.80523000      10.14951000      -0.18717047      -0.02212557      -0.02440144
C        3.71912000       3.22088000      10.15298000       0.00147453      -0.00074173      -0.02693525
C       -1.39467000       3.48929000      10.14953000      -0.11061185       0.14982600      -0.01894377
C        1.39471000       0.26841000      10.12548000       0.17232261      -0.21248711      -0.01580576
C        0.92977000       2.68406000      10.12526000       0.09888473       0.25637482      -0.02544230
C        0.46490000       5.09970000      10.15303000      -0.00062771       0.00126399      -0.01943832
C        3.25428000       1.87882000      10.14830000       0.18470460       0.02040374      -0.00834656
C        2.78935000       4.29447000      10.15068000      -0.07656523      -0.17021420      -0.01121390
C        5.57873000       1.07359000      10.12528000      -0.27080570      -0.04319766      -0.01512628
Li       0.46384000       1.34256000      11.86431000       0.00103233       0.00098966       0.00303240
37
Lattice="7.380000114 0.0 0.0 -3.690000057 6.391267579 0.0 0.0 0.0 24.0" Properties=species:S:1:pos:R:3:MACE_forces:R:3 MACE_energy=-336.32332606997096 pbc="T T T"
C        0.00000000       0.00000000      13.77458000      -0.19780722      -0.11443230       0.03691034
C       -1.22999000       2.13040000      13.73292000      -0.16598559       0.09802009       0.06171459
C       -2.46001000       4.26087000      13.73259000       0.00025898      -0.19214407       0.07788659
C        2.45998000       0.00000000      13.77487000       0.19809683      -0.11405202       0.03269837
C        1.22999000       2.13040000      13.77458000       0.00036187       0.23083610       0.03689232
C       -0.00004000       4.26087000      13.72670000       0.03228219       0.01764475       0.05533497
C        4.92002000       0.00000000      13.72670000      -0.00163803      -0.03761434       0.05533537
C        3.69004000       2.13040000      13.73259000       0.16383320       0.09683887       0.07792475
C        2.46001000       4.26087000      13.72597000      -0.03352166       0.01660367       0.07700136
C        0.00000000       1.42027000      13.77437000      -0.19775426       0.11428175       0.04023064
C       -1.23002000       3.55073000      13.72719000      -0.03180083      -0.02028965       0.04790991
C       -2.46001000       5.68113000      13.77478000      -0.00013144      -0.22794235       0.03248828
C        2.45998000       1.42027000      13.77478000       0.19933809       0.11528542       0.03245804
C        1.22995000       3.55073000      13.73281000       0.00192155       0.19068678       0.05328484
C       -0.00004000       5.68113000      13.73275000       0.16772528      -0.09444704       0.06000818
C        4.92002000       1.42027000      13.72719000      -0.00002205       0.03637585       0.04790929
C        3.69000000       3.55073000      13.72902000       0.03100293      -0.02002243       0.01829849
C        2.46001000       5.68113000      13.73281000      -0.16623325      -0.09556688       0.05325714
C        0.00000000       0.00000000      10.22542000      -0.19780722      -0.11443230      -0.03691034
C       -1.22999000       2.13040000      10.26708000      -0.16598559       0.09802009      -0.06171459
C       -2.46001000       4.26087000      10.26741000       0.00025898      -0.19214407      -0.07788659
C        2.45998000       0.00000000      10.22513000       0.19809683      -0.11405202      -0.03269837
C        1.22999000       2.13040000      10.22542000       0.00036187       0.23083610      -0.03689232
C       -0.00004000       4.26087000      10.27330000       0.03228219       0.01764475      -0.05533497
C        4.92002000       0.00000000      10.27330000      -0.00163803      -0.03761434      -0.05533537
C        3.69004000       2.13040000      10.26741000       0.16383320       0.09683887      -0.07792475
C        2.46001000       4.26087000      10.27403000      -0.03352166       0.01660367      -0.07700136
C        0.00000000       1.42027000      10.22563000      -0.19775426       0.11428175      -0.04023064
C       -1.23002000       3.55073000      10.27281000      -0.03180083      -0.02028965      -0.04790991
C       -2.46001000       5.68113000      10.22522000      -0.00013144      -0.22794235      -0.03248828
C        2.45998000       1.42027000      10.22522000       0.19933809       0.11528542      -0.03245804
C        1.22995000       3.55073000      10.26719000       0.00192155       0.19068678      -0.05328484
C       -0.00004000       5.68113000      10.26725000       0.16772528      -0.09444704      -0.06000818
C        4.92002000       1.42027000      10.27281000      -0.00002205       0.03637585      -0.04790929
C        3.69000000       3.55073000      10.27098000       0.03100293      -0.02002243      -0.01829849
C        2.46001000       5.68113000      10.26719000      -0.16623325      -0.09556688      -0.05325714
Li       1.23000000       0.71013000      12.00000000       0.00014685      -0.00012437      -0.00000000
29
Lattice="6.508500099 0.0 0.0 -3.25425005 5.636526426 0.0 0.0 0.0 24.0" Properties=species:S:1:pos:R:3:MACE_forces:R:3 MACE_energy=-262.04317516793765 pbc="T T T"
C        0.00000000       0.00000000      13.94066000      -0.06649889      -0.24803395      -0.00925805
C       -0.46487000       2.41565000      13.93764000      -0.18262778       0.17956371       0.01375711
C       -0.92980000       4.83129000      13.92024000       0.02965404      -0.06896680       0.00558230
C        1.85958000       1.61041000      13.93767000       0.24614198       0.06833681       0.01913449
C        1.39467000       4.02611000      13.92004000       0.04609444       0.05961814       0.00425071
C        4.18405000       0.80523000      13.91996000      -0.07786611       0.00943835       0.01008654
C        3.71912000       3.22088000      13.91310000       0.00151099      -0.00005461      -0.00003522
C       -2.32448000       4.56294000      13.92247000       0.05162147      -0.09196153       0.00627177
C        0.46490000       1.34206000      13.97244000       0.00096147      -0.00050072       0.00795904
C       -0.00003000       3.75770000      13.92154000      -0.00129476       0.15053646       0.01022326
C        2.78935000       0.53682000      13.92256000       0.13227227      -0.07413327       0.00119171
C        2.32448000       2.95247000      13.92171000       0.05143040       0.09073773      -0.00218182
C        1.85954000       5.36812000      13.92267000      -0.12659252      -0.07718316       0.01525956
C        4.64892000       2.14723000      13.92170000      -0.10515804       0.00227105      -0.00218519