13
Lattice="4.260799885 0.0 0.0 -2.130399942 3.689960941 0.0 0.0 0.0 24.0" Properties=species:S:1:pos:R:3:forces:R:3 energy=-113.51222229003906 stress="-0.009178826585412025 5.064651304564904e-06 -4.2704819236405456e-08 5.064651304564904e-06 -0.009183868765830994 -2.5053711283362645e-07 -4.2704819236405456e-08 -2.5053711283362645e-07 9.80355980573222e-05" free_energy=-113.51222229003906 pbc="T T T"
C        0.00000000       0.00000000      13.97128000      -0.09162374      -0.15858236      -0.00307677
C       -0.00002000       2.45999000      13.97128000      -0.09121525       0.15913454      -0.00308686
C        2.13042000       1.22997000      13.97128000       0.18209270       0.00097862      -0.00307564
C        2.84053000       2.45999000      13.96706000      -0.00034914      -0.00068140      -0.00177540
C        0.71010000       1.23001000      13.99330000       0.00164714      -0.00053822      -0.00946426
C        2.84055000       0.00000000      13.96706000      -0.00056056      -0.00031729      -0.00177548
C        0.00000000       0.00000000      10.05225000      -0.00583576      -0.01026245       0.00660124
C       -0.00002000       2.45999000      10.05218000      -0.00417113       0.00883856       0.00740291
C        2.13042000       1.22997000      10.05225000       0.01082589      -0.00017202       0.00661671
C        3.55067000       1.22997000      10.05288000      -0.01137244       0.00073987      -0.00902750
C        1.42025000       0.00000000      10.05283000       0.00642780      -0.00988718      -0.00848576
C        1.42030000       2.45995000      10.05288000       0.00412765       0.01067941      -0.00900935
Li       0.71013000       1.22997000      11.84346000       0.00000660       0.00006991       0.02815619
13
Lattice="4.260799885 0.0 0.0 -2.130399942 3.689960941 0.0 0.0 0.0 24.0" Properties=species:S:1:pos:R:3:forces:R:3 energy=-113.51322174072266 stress="-0.009195419028401375 -6.148893589852378e-07 -2.3939369583891867e-11 -6.148893589852378e-07 -0.009194716811180115 -1.1136598487837546e-07 -2.3939369583891867e-11 -1.1136598487837546e-07 9.401891293236986e-05" free_energy=-113.51322174072266 pbc="T T T"
C       -0.00130891      -0.00226546      13.97123605      -0.03296769      -0.05694383      -0.00261676
C       -0.00132307       2.46226335      13.97123590      -0.03281210       0.05666310      -0.00261980
C        2.13302132       1.22998398      13.97123606       0.06583160       0.00012405      -0.00262304
C        2.84052501       2.45998027      13.96703464       0.00004654      -0.00017260      -0.00164053
C        0.71012353       1.23000231      13.99316480       0.00020409      -0.00012421      -0.01027149
C        2.84054199      -0.00000453      13.96703464      -0.00030689       0.00044953      -0.00164068
C       -0.00008337      -0.00014661      10.05234430       0.00088941       0.00136966       0.00331295
C       -0.00007959       2.46011627      10.05228576       0.00097209      -0.00166099       0.00396916
C        2.13057466       1.22996754      10.05234452      -0.00196266       0.00045007       0.00332394
C        3.55050754       1.22998057      10.05275104       0.00161279       0.00016377      -0.00560214
C        1.42034183      -0.00014125      10.05270877      -0.00053218       0.00096297      -0.00514813
C        1.42035897       2.46010256      10.05275130      -0.00098099      -0.00131605      -0.00560054
Li       0.71013009       1.22997100      11.84386223       0.00000617       0.00003444       0.02715722
13
Lattice="4.260799885 0.0 0.0 -2.130399942 3.689960941 0.0 0.0 0.0 24.0" Properties=species:S:1:pos:R:3:forces:R:3 energy=-113.51338958740234 stress="-0.00920745637267828 2.574770121555048e-07 -1.977813290920949e-08 2.574770121555048e-07 -0.009207600727677345 -4.227592498295962e-08 -1.977813290920949e-08 -4.227592498295962e-08 8.794467430561781e-05" free_energy=-113.51338958740234 pbc="T T T"
C       -0.00206442      -0.00357049      13.97117688       0.00065717       0.00123026      -0.00282370
C       -0.00207503       2.46356220      13.97117667       0.00087696      -0.00128976      -0.00282594
C        2.13452981       1.22998694      13.97117676      -0.00156830       0.00015281      -0.00282297
C        2.84052599       2.45997627      13.96699757       0.00003531       0.00008660      -0.00159312
C        0.71012841       1.22999943      13.99293305       0.00008031      -0.00011233      -0.00789048
C        2.84053501       0.00000547      13.96699757      -0.00008099      -0.00006930      -0.00159264
C       -0.00006457      -0.00011791      10.05241973      -0.00043583      -0.00083715       0.00047672
C       -0.00005862       2.46008077      10.05237602      -0.00047154       0.00078332       0.00096744
C        2.13053279       1.22997758      10.05242020       0.00095013      -0.00005755       0.00047441
C        3.55054147       1.22998438      10.05262390      -0.00105576      -0.00010928      -0.00234751
C        1.42033114      -0.00012158      10.05259191       0.00059472      -0.00079625      -0.00200295
C        1.42033780       2.46007514      10.05262420       0.00041588       0.00100384      -0.00233944
Li       0.71013023       1.22997178      11.84447554       0.00000194       0.00001454       0.02432013
13
Lattice="4.260799885 0.0 0.0 -2.130399942 3.689960941 0.0 0.0 0.0 24.0" Properties=species:S:1:pos:R:3:forces:R:3 energy=-113.51339721679688 stress="-0.009206514805555344 -1.2110096747619536e-07 -1.88705921999599e-08 -1.2110096747619536e-07 -0.009206351824104786 -4.453083590760798e-08 -1.88705921999599e-08 -4.453083590760798e-08 8.61758817336522e-05" free_energy=-113.51339721679688 pbc="T T T"
C       -0.00209008      -0.00361344      13.97113272       0.00169549       0.00305162      -0.00299924
C       -0.00209727       2.46360412      13.97113247       0.00182581      -0.00312348      -0.00300046
C        2.13457716       1.22998941      13.97113260      -0.00352217       0.00005553      -0.00299932
C        2.84052651       2.45997735      13.96697253       0.00007321       0.00005618      -0.00180540
C        0.71012994       1.22999761      13.99280731      -0.00001760      -0.00007282      -0.00569858
C        2.84053352       0.00000475      13.96697253      -0.00005481       0.00003183      -0.00180552
C       -0.00007101      -0.00013042      10.05243005       0.00020269       0.00023491      -0.00007358
C       -0.00006534       2.46009211      10.05239420       0.00007278      -0.00027069       0.00033192
C        2.13054659       1.22997706      10.05243050      -0.00029431       0.00005079      -0.00006597
C        3.55052577       1.22998297      10.05258386       0.00025980      -0.00006053      -0.00137350
C        1.42034027      -0.00013375      10.05255737      -0.00011608       0.00024521      -0.00108065
C        1.42034367       2.46009021      10.05258428      -0.00012910      -0.00021118      -0.00137603
Li       0.71013027       1.22997203      11.84485959       0.00000430       0.00001271       0.02194637
13
Lattice="4.260799885 0.0 0.0 -2.130399942 3.689960941 0.0 0.0 0.0 24.0" Properties=species:S:1:pos:R:3:forces:R:3 energy=-113.51343536376953 stress="-0.009200343862175941 -5.25699192621687e-07 -2.3691463013619796e-08 -5.25699192621687e-07 -0.009199898689985275 -4.273915976682474e-08 -2.3691463013619796e-08 -4.273915976682474e-08 7.351905514951795e-05" free_energy=-113.51343536376953 pbc="T T T"
C       -0.00212435      -0.00365885      13.97076262       0.00256162       0.00425975      -0.00355089
C       -0.00211229       2.46364059      13.97076217       0.00228494      -0.00424476      -0.00354640
C        2.13462495       1.23000023      13.97076249      -0.00472279      -0.00018374      -0.00355171
C        2.84053415       2.45998372      13.96675259      -0.00003724      -0.00005209      -0.00366698
C        0.71013284       1.22998673      13.99200838      -0.00015827       0.00012790       0.00872722
C        2.84052446       0.00000720      13.96675259       0.00007104       0.00009464      -0.00366705
C       -0.00006631      -0.00013615      10.05245558       0.00061459       0.00121446      -0.00232193
C       -0.00007187       2.46009061      10.05247439       0.00065928      -0.00109996      -0.00251700
C        2.13054822       1.22998172      10.05245672      -0.00130443       0.00004796      -0.00232500
C        3.55051611       1.22997556      10.05236046       0.00160357       0.00006514       0.00397226
C        1.42035000      -0.00013864      10.05237306      -0.00086357       0.00131381       0.00383927
C        1.42034335       2.46010345      10.05236090      -0.00071640      -0.00154656       0.00397889
Li       0.71013075       1.22997382      11.84770805       0.00000781       0.00000358       0.00462943
