13
Lattice="4.260799885 0.0 0.0 -2.130399942 3.689960941 0.0 0.0 0.0 24.0" Properties=species:S:1:pos:R:3:forces:R:3 energy=-112.59949015347745 stress="-0.07805730916567398 3.393816704821315e-06 1.514651367263685e-07 3.393816704821315e-06 -0.07806165664594869 -1.1241170388712431e-07 1.514651367263685e-07 -1.1241170388712431e-07 -0.024479108796866853" free_energy=-112.59949015347745 pbc="T T T"
C        0.00000000       0.00000000      13.67500000      -0.11440433      -0.19768325       0.17958646
C       -0.00002000       2.45999000      13.67500000      -0.11354106       0.19790848       0.17959246
C        2.13042000       1.22997000      13.67500000       0.22699978       0.00130927       0.17954642
C        2.84053000       2.45999000      13.67500000      -0.00020783      -0.00072190       0.06279838
C        0.71010000       1.23001000      13.67500000       0.00207101      -0.00088638       3.78127899
C        2.84055000       0.00000000      13.67500000      -0.00096321       0.00007588       0.06279814
C        0.00000000       0.00000000      10.32500000      -0.03983978      -0.06949132      -0.18139429
C       -0.00002000       2.45999000      10.32500000      -0.03822332       0.06775778      -0.18140522
C        2.13042000       1.22997000      10.32500000       0.07885500       0.00027619      -0.18137908
C        3.55067000       1.22997000      10.32500000      -0.07168048       0.00077793      -0.17491783
C        1.42025000       0.00000000      10.32500000       0.03693763      -0.06237517      -0.17488591
C        1.42030000       2.45995000      10.32500000       0.03393941       0.06303138      -0.17490157
Li       0.71010000       1.23001000      12.00000000       0.00005718       0.00002110      -3.37671696
13
Lattice="4.260799885 0.0 0.0 -2.130399942 3.689960941 0.0 0.0 0.0 24.0" Properties=species:S:1:pos:R:3:forces:R:3 energy=-112.99346604087216 stress="-0.07803843375857138 3.236969494248675e-06 -6.570848970310798e-07 3.236969494248675e-06 -0.07804229112848733 1.9931791111473708e-07 -6.570848970310798e-07 1.9931791111473708e-07 -0.014958374828040227" free_energy=-112.99346604087216 pbc="T T T"
C        0.00000000       0.00000000      13.68077725      -0.07367888      -0.12716198       0.65380813
C       -0.00002000       2.45999000      13.68077744      -0.07282420       0.12732936       0.65376330
C        2.13042000       1.22997000      13.68077596       0.14570941       0.00126361       0.65391160
C        2.84053000       2.45999000      13.67702021      -0.00022211      -0.00069917      -0.04057297
C        0.71010000       1.23001000      13.79664273       0.00196882      -0.00084952      -0.10643516
C        2.84055000       0.00000000      13.67702020      -0.00097275       0.00011703      -0.04057506
C        0.00000000       0.00000000      10.31916459      -0.07398496      -0.12863278      -0.26131037
C       -0.00002000       2.45999000      10.31916424      -0.07236537       0.12688892      -0.26134305
C        2.13042000       1.22997000      10.31916508       0.14713686       0.00027366      -0.26128445
C        3.55067000       1.22997000      10.31937294      -0.13812079       0.00077697      -0.26498997
C        1.42025000       0.00000000      10.31937397       0.07015160      -0.11988807      -0.26493218
C        1.42030000       2.45995000      10.31937346       0.06715035       0.12056728      -0.26497015
Li       0.71010184       1.23001068      11.89137192       0.00005201       0.00001468      -0.19506967
13
Lattice="4.260799885 0.0 0.0 -2.130399942 3.689960941 0.0 0.0 0.0 24.0" Properties=species:S:1:pos:R:3:forces:R:3 energy=-113.06042705978305 stress="-0.0788569885002654 3.21871408233075e-06 -5.077706637988355e-07 3.21871408233075e-06 -0.0788609966772244 1.0171682460615984e-08 -5.077706637988355e-07 1.0171682460615984e-08 -0.013582916079501241" free_energy=-113.06042705978305 pbc="T T T"
C        0.00000000       0.00000000      13.72790517      -0.09201888      -0.15894430      -0.12855159
C       -0.00002000       2.45999000      13.72790218      -0.09117106       0.15909777      -0.12856671
C        2.13042000       1.22997000      13.72791118       0.18241299       0.00125189      -0.12860028
C        2.84053000       2.45999000      13.67427157      -0.00023356      -0.00069092       0.70674502
C        0.71010000       1.23001000      13.79803809       0.00196235      -0.00084474       0.45194583
C        2.84055000       0.00000000      13.67427141      -0.00097874       0.00013163       0.70673445
C        0.00000000       0.00000000      10.30006792      -0.07643511      -0.13287580      -0.25715160
C       -0.00002000       2.45999000      10.30006521      -0.07481745       0.13113207      -0.25715886
C        2.13042000       1.22997000      10.30007030       0.15204366       0.00027191      -0.25715087
C        3.55067000       1.22997000      10.30002885      -0.14228711       0.00077326      -0.25672205
C        1.42025000       0.00000000      10.30003408       0.07223483      -0.12349811      -0.25671444
C        1.42030000       2.45995000      10.30003083       0.06923793       0.12418121      -0.25672491
Li       0.71010569       1.23001178      11.86940319       0.00005016       0.00001413       0.06191601
13
Lattice="4.260799885 0.0 0.0 -2.130399942 3.689960941 0.0 0.0 0.0 24.0" Properties=species:S:1:pos:R:3:forces:R:3 energy=-113.33021273141708 stress="-0.0806078481409384 3.0825180605662547e-06 -1.912644589051806e-07 3.0825180605662547e-06 -0.08061144037478883 1.0574820935047157e-07 -1.912644589051806e-07 1.0574820935047157e-07 -0.0035664785003555943" free_energy=-113.33021273141708 pbc="T T T"
C        0.00000000       0.00000000      13.87214805      -0.07645323      -0.13199757       0.32297472
C       -0.00002000       2.45999000      13.87212816      -0.07559777       0.13210448       0.32314064
C        2.13042000       1.22997000      13.87216775       0.15136891       0.00123105       0.32281643
C        2.84053000       2.45999000      13.87563317      -0.00022415      -0.00066977      -0.14251997
C        0.71010000       1.23001000      13.93903442       0.00185559      -0.00080286      -0.52980243
C        2.84055000       0.00000000      13.87562926      -0.00095487       0.00013316      -0.14247841
C        0.00000000       0.00000000      10.14884681      -0.03699640      -0.06454671      -0.12182892
C       -0.00002000       2.45999000      10.14883276      -0.03541021       0.06283144      -0.12171295
C        2.13042000       1.22997000      10.14885673       0.07320855       0.00027081      -0.12195308
C        3.55067000       1.22997000      10.14797688      -0.07004328       0.00075105      -0.09229740
C        1.42025000       0.00000000      10.14800069       0.03611111      -0.06096452      -0.09252576
C        1.42030000       2.45995000      10.14798364       0.03315678       0.06164306      -0.09238847
Li       0.71013568       1.23002028      11.80276169      -0.00002103       0.00001639       0.48857561
13
Lattice="4.260799885 0.0 0.0 -2.130399942 3.689960941 0.0 0.0 0.0 24.0" Properties=species:S:1:pos:R:3:forces:R:3 energy=-113.3669781646716 stress="-0.08100203237543795 3.0757252106689026e-06 8.901225815302653e-09 3.0757252106689026e-06 -0.08100560378242794 -4.301587085189365e-08 8.901225815302653e-09 -4.301587085189365e-08 -0.00280506304898095" free_energy=-113.3669781646716 pbc="T T T"
C        0.00000000       0.00000000      13.91822649      -0.09235816      -0.15954831      -0.16136575
C       -0.00002000       2.45999000      13.91821452      -0.09151401       0.15967281      -0.16127203
C        2.13042000       1.22997000      13.91823821       0.18316079       0.00122823      -0.16149951
C        2.84053000       2.45999000      13.90117378      -0.00022252      -0.00066557       0.20276211
C        0.71010000       1.23001000      13.92881265       0.00187457      -0.00081782       0.29138051
C        2.84055000       0.00000000      13.90117194      -0.00095203       0.00013162       0.20277859
C        0.00000000       0.00000000      10.11470749      -0.02105478      -0.03692640      -0.05099199
C       -0.00002000       2.45999000      10.11469906      -0.01948243       0.03522742      -0.05092520
C        2.13042000       1.22997000      10.11471060       0.04132143       0.00027681      -0.05104087
C        3.55067000       1.22997000      10.11562394      -0.04005736       0.00074526      -0.06928511
C        1.42025000       0.00000000      10.11563605       0.02111075      -0.03499724      -0.06939119
C        1.42030000       2.45995000      10.11562558       0.01817558       0.03566534      -0.06931657
Li       0.71013949       1.23002282      11.82315970      -0.00000182       0.00000785       0.14816699
13
Lattice="4.260799885 0.0 0.0 -2.130399942 3.689960941 0.0 0.0 0.0 24.0" Properties=species:S:1:pos:R:3:forces:R:3 energy=-113.38066250642544 stress="-0.08116273240352917 3.068144945601255e-06 9.106264208642829e-08 3.068144945601255e-06 -0.08116628864192121 -6.394945912091392e-08 9.106264208642829e-08 -6.394945912091392e-08 -0.002019368978659611" free_energy=-113.38066250642544 pbc="T T T"
C        0.00000000       0.00000000      13.93594557      -0.09228071      -0.15941173      -0.05773054
C       -0.00002000       2.45999000      13.93594531      -0.09144288       0.15954724      -0.05774325
C        2.13042000       1.22997000      13.93594268       0.18299041       0.00122792      -0.05772167
C        2.84053000       2.45999000      13.93186698      -0.00020818      -0.00065771       0.03143885
C        0.71010000       1.23001000      13.94313796       0.00187155      -0.00081846       0.32560246
C        2.84055000       0.00000000      13.93186762      -0.00094842       0.00011722       0.03143255
C        0.00000000       0.00000000      10.08939756      -0.01175906      -0.02081974      -0.02241662
C       -0.00002000       2.45999000      10.08939747      -0.01019819       0.01913249      -0.02242474
C        2.13042000       1.22997000      10.08939285       0.02272812       0.00028171      -0.02238430
C        3.55067000       1.22997000      10.09014114      -0.02103377       0.00073892      -0.03645472
C        1.42025000       0.00000000      10.09013824       0.01159483      -0.01852635      -0.03641561
C        1.42030000       2.45995000      10.09013728       0.00867558       0.01918303      -0.03642391
Li       0.71014179       1.23002500      11.84668933       0.00001072       0.00000547      -0.03875850
13
Lattice="4.260799885 0.0 0.0 -2.130399942 3.689960941 0.0 0.0 0.0 24.0" Properties=species:S:1:pos:R:3:forces:R:3 energy=-113.3836833444315 stress="-0.08114547074247981 3.0653187239970073e-06 3.554503630061095e-09 3.0653187239970073e-06 -0.0811490192384018 -1.5846048920156663e-08 3.554503630061095e-09 -1.5846048920156663e-08 -0.0017026550508450955" free_energy=-113.3836833444315 pbc="T T T"
C        0.00000000       0.00000000      13.93314561      -0.09096189      -0.15712765       0.07502640
C       -0.00002000       2.45999000      13.93314474      -0.09012332       0.15726115       0.07501593
C        2.13042000       1.22997000      13.93314315       0.18035473       0.00122718       0.07504802
C        2.84053000       2.45999000      13.93339178      -0.00020925      -0.00065855      -0.05221769
C        0.71010000       1.23001000      13.95892983       0.00187199      -0.00081681       0.03670198
C        2.84055000       0.00000000      13.93339212      -0.00094871       0.00011918      -0.05222001
C        0.00000000       0.00000000      10.08831034      -0.01197827      -0.02119948      -0.03229666
C       -0.00002000       2.45999000      10.08830986      -0.01041783       0.01951244      -0.03230206
C        2.13042000       1.22997000      10.08830720       0.02316711       0.00028166      -0.03228059
C        3.55067000       1.22997000      10.08837307      -0.02109890       0.00073870      -0.02710635
C        1.42025000       0.00000000      10.08837207       0.01162752      -0.01858346      -0.02708659
C        1.42030000       2.45995000      10.08837070       0.00870861       0.01923996      -0.02709017
Li       0.71014231       1.23002526      11.84480953       0.00000821       0.00000567       0.02080778
13
Lattice="4.260799885 0.0 0.0 -2.130399942 3.689960941 0.0 0.0 0.0 24.0" Properties=species:S:1:pos:R:3:forces:R:3 energy=-113.3849231246213 stress="-0.08114818797888064 3.0613273787763826e-06 -4.3233129044884295e-08 3.0613273787763826e-06 -0.08115172875922873 -2.0087997976692926e-08 -4.3233129044884295e-08 -2.0087997976692926e-08 -0.0015164930655346424" free_energy=-113.3849231246213 pbc="T T T"
C        0.00000000       0.00000000      13.93753282      -0.08988677      -0.15526612       0.01890671
C       -0.00002000       2.45999000      13.93753098      -0.08904732       0.15539747       0.01890142
C        2.13042000       1.22997000      13.93753205       0.17820744       0.00122708       0.01891155
C        2.84053000       2.45999000      13.93019118      -0.00021094      -0.00065871       0.04253570
C        0.71010000       1.23001000      13.96703252       0.00187154      -0.00081624      -0.00743353
C        2.84055000       0.00000000      13.93019124      -0.00094914       0.00012109       0.04253472
C        0.00000000       0.00000000      10.08562608      -0.01129063      -0.02000824      -0.02835946
C       -0.00002000       2.45999000      10.08562507      -0.00973139       0.01832216      -0.02835912
C        2.13042000       1.22997000      10.08562463       0.02179251       0.00028186      -0.02836008
C        3.55067000       1.22997000      10.08582323      -0.01992054       0.00073802      -0.02694678
C        1.42025000       0.00000000      10.08582430       0.01103809      -0.01756377      -0.02694785
C        1.42030000       2.45995000      10.08582254       0.00812078       0.01821962      -0.02694707
Li       0.71014307       1.23002576      11.84564335       0.00000637       0.00000577       0.03156378
13
Lattice="4.260799885 0.0 0.0 -2.130399942 3.689960941 0.0 0.0 0.0 24.0" Properties=species:S:1:pos:R:3:forces:R:3 energy=-113.38827778909936 stress="-0.0813409359620746 3.04434231027248e-06 1.1351340844131842e-08 3.04434231027248e-06 -0.08134443797633334 -4.2339483921006946e-08 1.1351340844131842e-08 -4.2339483921006946e-08 -0.0010740997293401497" free_energy=-113.38827778909936 pbc="T T T"
C        0.00000000       0.00000000      13.95574414      -0.09192675      -0.15880101      -0.00833803
C       -0.00002000       2.45999000      13.95573761      -0.09108592       0.15892905      -0.00829533
C        2.13042000       1.22997000      13.95574890       0.18229365       0.00122647      -0.00839370
C        2.84053000       2.45999000      13.95138967      -0.00021333      -0.00065729       0.01631369
C        0.71010000       1.23001000      13.97473903       0.00186575      -0.00081738       0.14687591
C        2.84055000       0.00000000      13.95138872      -0.00094728       0.00012470       0.01632401
C        0.00000000       0.00000000      10.06420394      -0.00475696      -0.00868915       0.00801234
C       -0.00002000       2.45999000      10.06420235      -0.00321028       0.00701384       0.00802410
C        2.13042000       1.22997000      10.06420468       0.00872920       0.00028441       0.00799296
C        3.55067000       1.22997000      10.06546928      -0.00761039       0.00073111      -0.02277907
C        1.42025000       0.00000000      10.06547282       0.00487910      -0.00690847      -0.02280686
C        1.42030000       2.45995000      10.06547094       0.00197838       0.00755770      -0.02279883
Li       0.71014813       1.23003005      11.86622792       0.00000484       0.00000602      -0.11013121
13
Lattice="4.260799885 0.0 0.0 -2.130399942 3.689960941 0.0 0.0 0.0 24.0" Properties=species:S:1:pos:R:3:forces:R:3 energy=-113.3899175551347 stress="-0.08139132187126458 3.036850784335821e-06 -1.4210352393277443e-08 3.036850784335821e-06 -0.081394810608428 -1.9220300852225715e-08 -1.4210352393277443e-08 -1.9220300852225715e-08 -0.0006734432244805408" free_energy=-113.3899175551347 pbc="T T T"
C        0.00000000       0.00000000      13.96310319      -0.09146988      -0.15800943       0.05170954
C       -0.00002000       2.45999000      13.96309767      -0.09062852       0.15813667       0.05174124
C        2.13042000       1.22997000      13.96310639       0.18137996       0.00122622       0.05167437
C        2.84053000       2.45999000      13.96181434      -0.00021214      -0.00065585      -0.03357098
C        0.71010000       1.23001000      13.98859634       0.00186344      -0.00081671       0.02178480
C        2.84055000       0.00000000      13.96181369      -0.00094619       0.00012424      -0.03356298
C        0.00000000       0.00000000      10.05541916      -0.00330546      -0.00617413      -0.01141041
C       -0.00002000       2.45999000      10.05541815      -0.00176362       0.00450295      -0.01140599
C        2.13042000       1.22997000      10.05541946       0.00582844       0.00028483      -0.01142602
C        3.55067000       1.22997000      10.05495168      -0.00399028       0.00072861       0.00711777
C        1.42025000       0.00000000      10.05495432       0.00306778      -0.00377543       0.00709706
C        1.42030000       2.45995000      10.05495296       0.00017261       0.00442317       0.00710382
Li       0.71015069       1.23003235      11.86735265       0.00000387       0.00000485      -0.09685222
13
Lattice="4.260799885 0.0 0.0 -2.130399942 3.689960941 0.0 0.0 0.0 24.0" Properties=species:S:1:pos:R:3:forces:R:3 energy=-113.39100157274953 stress="-0.08139454155669701 3.036349604405333e-06 -2.1715045420020783e-08 3.036349604405333e-06 -0.08139803342321536 -3.403164628258668e-08 -2.1715045420020783e-08 -3.403164628258668e-08 -0.0005102616294137082" free_energy=-113.39100157274953 pbc="T T T"
C        0.00000000       0.00000000      13.96882097      -0.09146203      -0.15799555       0.00005310
C       -0.00002000       2.45999000      13.96881798      -0.09062085       0.15812348       0.00005822
C        2.13042000       1.22997000      13.96882122       0.18136211       0.00122637       0.00004239
C        2.84053000       2.45999000      13.96228390      -0.00021095      -0.00065487       0.03555166
C        0.71010000       1.23001000      13.99396408       0.00186376      -0.00081681       0.00571194
C        2.84055000       0.00000000      13.96228390      -0.00094572       0.00012307       0.03555201
C        0.00000000       0.00000000      10.05218772      -0.00345280      -0.00642935       0.00019545
C       -0.00002000       2.45999000      10.05218719      -0.00191070       0.00475790       0.00019626
C        2.13042000       1.22997000      10.05218679       0.00612344       0.00028441       0.00019135
C        3.55067000       1.22997000      10.05256705      -0.00487240       0.00072875      -0.00583295
C        1.42025000       0.00000000      10.05256797       0.00350896      -0.00453930      -0.00583687
C        1.42030000       2.45995000      10.05256723       0.00061313       0.00518772      -0.00583771
Li       0.71015167       1.23003333      11.86074401       0.00000404       0.00000419      -0.06004486
13
Lattice="4.260799885 0.0 0.0 -2.130399942 3.689960941 0.0 0.0 0.0 24.0" Properties=species:S:1:pos:R:3:forces:R:3 energy=-113.39157639186251 stress="-0.08137554609636499 3.0386407016421325e-06 -1.0026359447280054e-08 3.0386407016421325e-06 -0.08137904091269581 -2.2622446679615283e-08 -1.0026359447280054e-08 -2.2622446679615283e-08 -0.0004215966475748058" free_energy=-113.39157639186251 pbc="T T T"
C        0.00000000       0.00000000      13.97059121      -0.09185652      -0.15867836       0.04497627
C       -0.00002000       2.45999000      13.97058983      -0.09101540       0.15880706       0.04496715
C        2.13042000       1.22997000      13.97058885       0.18214901       0.00122665       0.04499243
C        2.84053000       2.45999000      13.96812758      -0.00020926      -0.00065455      -0.01893344
C        0.71010000       1.23001000      13.99653361       0.00186339      -0.00081645      -0.05284813
C        2.84055000       0.00000000      13.96812785      -0.00094515       0.00012129      -0.01893492
C        0.00000000       0.00000000      10.05122340      -0.00467741      -0.00855060      -0.01328428
C       -0.00002000       2.45999000      10.05122314      -0.00313349       0.00687758      -0.01328843
C        2.13042000       1.22997000      10.05122143       0.00857287       0.00028348      -0.01327971
C        3.55067000       1.22997000      10.05089727      -0.00702518       0.00072994       0.00094146
C        1.42025000       0.00000000      10.05089703       0.00458607      -0.00640317       0.00094881
C        1.42030000       2.45995000      10.05089635       0.00168702       0.00705326       0.00094638
Li       0.71015262       1.23003430      11.84908246       0.00000405       0.00000387      -0.00720359
13
Lattice="4.260799885 0.0 0.0 -2.130399942 3.689960941 0.0 0.0 0.0 24.0" Properties=species:S:1:pos:R:3:forces:R:3 energy=-113.39190610507335 stress="-0.0813702028321601 3.0412970216330653e-06 1.8551696777022513e-08 3.0412970216330653e-06 -0.0813737009722777 -3.544199366565881e-08 1.8551696777022513e-08 -3.544199366565881e-08 -0.00041202530256139087" free_energy=-113.39190610507335 pbc="T T T"
C        0.00000000       0.00000000      13.97482158      -0.09319935      -0.16100434       0.00738267
C       -0.00002000       2.45999000      13.97482079      -0.09235814       0.16113335       0.00736926
C        2.13042000       1.22997000      13.97481833       0.18483458       0.00122713       0.00740204
C        2.84053000       2.45999000      13.97120629      -0.00020875      -0.00065423       0.00428528
C        0.71010000       1.23001000      13.99499207       0.00186238      -0.00081655      -0.00085296
C        2.84055000       0.00000000      13.97120665      -0.00094473       0.00012037       0.00428263
C        0.00000000       0.00000000      10.04964831      -0.00534706      -0.00971056      -0.00977053
C       -0.00002000       2.45999000      10.04964799      -0.00380187       0.00803649      -0.00977477
C        2.13042000       1.22997000      10.04964588       0.00991249       0.00028276      -0.00976239
C        3.55067000       1.22997000      10.04972697      -0.00868924       0.00073075      -0.00732051
C        1.42025000       0.00000000      10.04972635       0.00541851      -0.00784383      -0.00730905
C        1.42030000       2.45995000      10.04972556       0.00251735       0.00849561      -0.00731263
Li       0.71015358       1.23003527      11.84001322       0.00000383       0.00000306       0.02138096
13
Lattice="4.260799885 0.0 0.0 -2.130399942 3.689960941 0.0 0.0 0.0 24.0" Properties=species:S:1:pos:R:3:forces:R:3 energy=-113.39203737831332 stress="-0.08139841292386843 3.0371085081393607e-06 1.7569607194216888e-08 3.0371085081393607e-06 -0.08140190202854244 -3.9279350716755226e-08 1.7569607194216888e-08 -3.9279350716755226e-08 -0.0003800745334137574" free_energy=-113.39203737831332 pbc="T T T"
C        0.00000000       0.00000000      13.97659524      -0.09330790      -0.16119332      -0.01041202
C       -0.00002000       2.45999000      13.97659126      -0.09246555       0.16131976      -0.01039521
C        2.13042000       1.22997000      13.97659660       0.18505629       0.00122692      -0.01043842
C        2.84053000       2.45999000      13.97223831      -0.00021144      -0.00065497       0.01661483
C        0.71010000       1.23001000      13.99478294       0.00186087      -0.00081661       0.03680154
C        2.84055000       0.00000000      13.97223803      -0.00094500       0.00012345       0.01661845
C        0.00000000       0.00000000      10.04731708      -0.00432004      -0.00793135       0.00170387
C       -0.00002000       2.45999000      10.04731575      -0.00277694       0.00625896       0.00171091
C        2.13042000       1.22997000      10.04731658       0.00785924       0.00028314       0.00169417
C        3.55067000       1.22997000      10.04798035      -0.00693864       0.00072955      -0.01286340
C        1.42025000       0.00000000      10.04798245       0.00454247      -0.00632873      -0.01287832
C        1.42030000       2.45995000      10.04798080       0.00164422       0.00697957      -0.01287318
Li       0.71015449       1.23003600      11.84506462       0.00000243       0.00000363      -0.00528324
13
Lattice="4.260799885 0.0 0.0 -2.130399942 3.689960941 0.0 0.0 0.0 24.0" Properties=species:S:1:pos:R:3:forces:R:3 energy=-113.39214230117202 stress="-0.08141689433908936 3.0338015817630647e-06 7.308668872060512e-09 3.0338015817630647e-06 -0.081420377661846 -2.971042441360104e-08 7.308668872060512e-09 -2.971042441360104e-08 -0.00031320084007358965" free_energy=-113.39214230117202 pbc="T T T"
C        0.00000000       0.00000000      13.97718420      -0.09300271      -0.16066502       0.01107000
C       -0.00002000       2.45999000      13.97717902      -0.09215982       0.16079030       0.01109781
C        2.13042000       1.22997000      13.97718714       0.18444752       0.00122676       0.01103050
C        2.84053000       2.45999000      13.97420051      -0.00021226      -0.00065496      -0.00411082
C        0.71010000       1.23001000      13.99725449       0.00186003      -0.00081654       0.01308509
C        2.84055000       0.00000000      13.97420002      -0.00094487       0.00012457      -0.00410474
C        0.00000000       0.00000000      10.04568716      -0.00372241      -0.00689584      -0.00471276
C       -0.00002000       2.45999000      10.04568557      -0.00218119       0.00522500      -0.00470365
C        2.13042000       1.22997000      10.04568742       0.00666476       0.00028337      -0.00472960
C        3.55067000       1.22997000      10.04574917      -0.00542631       0.00072854      -0.00208638
C        1.42025000       0.00000000      10.04575225       0.00378573      -0.00501988      -0.00211125
C        1.42030000       2.45995000      10.04575033       0.00088981       0.00567001      -0.00210187
Li       0.71015536       1.23003681      11.84848273       0.00000172       0.00000369      -0.01762234
13
Lattice="4.260799885 0.0 0.0 -2.130399942 3.689960941 0.0 0.0 0.0 24.0" Properties=species:S:1:pos:R:3:forces:R:3 energy=-113.3922438038768 stress="-0.08142184377195921 3.0332153093381732e-06 6.179012963473582e-09 3.0332153093381732e-06 -0.08142533314136195 -3.557301269387192e-08 6.179012963473582e-09 -3.557301269387192e-08 -0.00020024351822733305" free_energy=-113.3922438038768 pbc="T T T"
C        0.00000000       0.00000000      13.97988962      -0.09265781      -0.16006641       0.00186703
C       -0.00002000       2.45999000      13.97988902      -0.09181626       0.16019493       0.00184989
C        2.13042000       1.22997000      13.97988593       0.18375081       0.00122701       0.00189039
C        2.84053000       2.45999000      13.97499620      -0.00020855      -0.00065235       0.01792814
C        0.71010000       1.23001000      14.00191794       0.00186144      -0.00081738      -0.01776504
C        2.84055000       0.00000000      13.97499675      -0.00094336       0.00012053       0.01792332
C        0.00000000       0.00000000      10.04339688      -0.00342548      -0.00638145      -0.00319408
C       -0.00002000       2.45999000      10.04339691      -0.00188556       0.00471168      -0.00320021
C        2.13042000       1.22997000      10.04339439       0.00607163       0.00028319      -0.00318496
C        3.55067000       1.22997000      10.04348907      -0.00490866       0.00072783      -0.00154535
C        1.42025000       0.00000000      10.04348798       0.00352655      -0.00457190      -0.00153051
C        1.42030000       2.45995000      10.04348771       0.00063205       0.00522217      -0.00153692
Li       0.71015641       1.23003822      11.84777159       0.00000317       0.00000215      -0.00950171
13
Lattice="4.260799885 0.0 0.0 -2.130399942 3.689960941 0.0 0.0 0.0 24.0" Properties=species:S:1:pos:R:3:forces:R:3 energy=-113.39244773517915 stress="-0.08143807017038202 3.0317055606743826e-06 3.386371074643929e-08 3.0317055606743826e-06 -0.08144156199711698 -4.276854418230357e-08 3.386371074643929e-08 -4.276854418230357e-08 -5.598510702589127e-05" free_energy=-113.39244773517915 pbc="T T T"
C        0.00000000       0.00000000      13.98546231      -0.09330352      -0.16118398       0.00318036
C       -0.00002000       2.45999000      13.98546507      -0.09246255       0.16131475       0.00313203
C        2.13042000       1.22997000      13.98545337       0.18503730       0.00122756       0.00325155
C        2.84053000       2.45999000      13.98184890      -0.00020553      -0.00064971       0.00414469
C        0.71010000       1.23001000      14.00522886       0.00186091      -0.00081847      -0.01305128
C        2.84055000       0.00000000      13.98184994      -0.00094128       0.00011706       0.00413526
C        0.00000000       0.00000000      10.03819524      -0.00296625      -0.00558566       0.00620688
C       -0.00002000       2.45999000      10.03819642      -0.00142842       0.00391754       0.00619020
C        2.13042000       1.22997000      10.03819040       0.00515492       0.00028263       0.00623786
C        3.55067000       1.22997000      10.03883796      -0.00437937       0.00072673      -0.00829741
C        1.42025000       0.00000000      10.03883359       0.00326121      -0.00411417      -0.00825129
C        1.42030000       2.45995000      10.03883446       0.00036889       0.00476540      -0.00826972
Li       0.71015932       1.23004147      11.84360349       0.00000367       0.00000031       0.00139085
13