193
Lattice="17.043199539 0.0 0.0 -8.52159977 14.759843763 0.0 0.0 0.0 24.0" Properties=species:S:1:pos:R:3:forces:R:3 energy=-1786.043212890625 stress="-0.06846778839826584 1.0130885129910894e-05 -8.49526393675859e-10 1.0130885129910894e-05 -0.0684792771935463 1.492439088979225e-10 -8.49526393675859e-10 1.492439088979225e-10 -9.289530862588435e-05" free_energy=-1786.043212890625 pbc="T T T"
C        0.00000000       0.00000000      13.86940000      -0.08874061      -0.15161081       0.00937179
C       -2.13040000       3.68996000      13.85944000      -0.00353456      -0.02222966       0.01108961
C       12.78240000       7.37992000      13.85072000       0.00251386      -0.00300006      -0.00617088
C       -6.39120000      11.06988000      13.84910000      -0.00851607      -0.00373610       0.00041997
C        4.26080000       0.00000000      13.85944000      -0.01916666      -0.01315597       0.01109737
C        2.13040000       3.68996000      13.89365000       0.09808225       0.17187214      -0.00177269
C       -0.00000000       7.37992000      13.85072000      -0.00935032      -0.00275963       0.00583214
C       -2.13040000      11.06988000      13.85076000       0.00112902       0.00229583       0.00086764
C        8.52160000       0.00000000      13.85072000      -0.00562563       0.00164203      -0.00611196
C        6.39120000       3.68996000      13.85072000       0.00047166      -0.00852115       0.00588936
C        4.26080000       7.37992000      13.85000000       0.00302858       0.00732061       0.00115306
C        2.13040000      11.06988000      13.85183000      -0.00037387       0.00307566       0.00076303
C       12.78240000       0.00000000      13.84910000      -0.00089204      -0.00828729       0.00052839
C       10.65200000       3.68996000      13.85076000      -0.00057107       0.00305396       0.00087401
C        8.52160000       7.37992000      13.85183000       0.00091970       0.00216044       0.00082070
C        6.39120000      11.06988000      13.85028000       0.00503902       0.01102751      -0.00810559
C       -0.00009000       2.46002000      13.89370000      -0.19353151       0.00067339      -0.00189029
C       -2.13049000       6.14998000      13.85072000       0.01165729       0.00620239       0.00592466
C       -4.26089000       9.83995000      13.85072000       0.00214593      -0.00081214       0.00110975
C       -6.39129000      13.52991000      13.85949000       0.02539746       0.00922074       0.01074680
C        4.26071000       2.46002000      13.86932000       0.18000065       0.00053398       0.00931422
C        2.13031000       6.14998000      13.85945000       0.02537063      -0.00849443       0.01079204
C       -0.00009000       9.83995000      13.85072000       0.00577523      -0.00444501      -0.00603011
C       -2.13049000      13.52991000      13.84914000       0.01223619       0.00470275       0.00023835
C        8.52151000       2.46002000      13.85030000      -0.00758330       0.00058287      -0.00813630
C        6.39111000       6.14998000      13.84910000       0.01201119      -0.00389607       0.00055315
C        4.26071000       9.83995000      13.85072000       0.00199557       0.00114436       0.00097046
C        2.13031000      13.52991000      13.85183000       0.00209808      -0.00049096       0.00075631
C       12.78231000       2.46002000      13.85000000      -0.00341694       0.00056058       0.00135682
C       10.65191000       6.14998000      13.85187000       0.00204632       0.00129446       0.00052366
C        8.52151000       9.83995000      13.85071000       0.00576773       0.00484183      -0.00623329
C        6.39111000      13.52991000      13.85076000       0.01150576      -0.00542401       0.00571834
C        2.13049000       1.22994000      13.89371000       0.09188166      -0.16665414      -0.00186066
C        0.00009000       4.91990000      13.86931000      -0.09467787       0.15669708       0.00921751
C       -2.13031000       8.60986000      13.85030000      -0.00093637      -0.00554806      -0.00818517
C       -4.26071000      12.29982000      13.85000000      -0.00294181      -0.00181383       0.00131154
C        6.39129000       1.22994000      13.85072000      -0.00557312       0.01370431       0.00595392
C        4.26089000       4.91990000      13.85946000      -0.02523028       0.01838098       0.01086812
C        2.13049000       8.60986000      13.84910000      -0.01462786       0.00919746       0.00049293
C        0.00009000      12.29982000      13.85187000      -0.00511476       0.00323109       0.00051131
C       10.65208000       1.22994000      13.85072000      -0.00614354       0.00214595       0.00117426
C        8.52168000       4.91990000      13.85071000      -0.01121646       0.00359448      -0.00592026
C        6.39129000       8.60986000      13.85072000      -0.00489451       0.00320938       0.00098528
C        4.26089000      12.29982000      13.85071000      -0.00360620       0.00839670      -0.00623200
C       14.91288000       1.22994000      13.85949000      -0.00921237       0.02742044       0.01076970
C       12.78248000       4.91990000      13.84914000      -0.00640546       0.01361891       0.00023562
C       10.65208000       8.60986000      13.85184000      -0.00585504       0.00247973       0.00068018
C        8.52168000      12.29982000      13.85076000      -0.01495742       0.00821052       0.00564555
C       15.62290000       2.46002000      13.86935000      -0.17774576      -0.00209980       0.00920165
C       -3.55069000       6.14998000      13.84912000      -0.01026399      -0.00658584       0.00039009
C       -5.68109000       9.83995000      13.85071000      -0.00400633       0.00216145      -0.00626292
C        9.23170000      13.52991000      13.85951000      -0.02322457       0.00662878       0.01078658
C        2.84050000       2.46002000      13.89367000       0.19572335      -0.00206725      -0.00179286
C        0.71010000       6.14998000      13.85944000      -0.02307221      -0.01107948       0.01082128
C       -1.42030000       9.83995000      13.85075000       0.00031300      -0.00143966       0.00090395
C       -3.55069000      13.52991000      13.85075000      -0.00964180      -0.00805621       0.00558110
C        7.10130000       2.46002000      13.85000000       0.00570849      -0.00204590       0.00099556
C        4.97090000       6.14998000      13.85074000      -0.00920154       0.00363141       0.00567362
C        2.84050000       9.83995000      13.85071000      -0.00349344      -0.00703110      -0.00626042
C        0.71010000      13.52991000      13.85186000       0.00021696      -0.00308202       0.00048403
C       11.36210000       2.46002000      13.85032000       0.00976921      -0.00210674      -0.00840885
C        9.23170000       6.14998000      13.85186000       0.00013729      -0.00137224       0.00041851
C        7.10130000       9.83995000      13.85072000       0.00032319      -0.00337356       0.00091462
C        4.97090000      13.52991000      13.84911000      -0.00975488       0.00211751       0.00043231
C        0.71002000       1.23009000      13.89374000      -0.09207338      -0.17266034      -0.00201061
C       -1.42038000       4.92005000      13.85945000       0.02499067       0.01222401       0.01068974
C       -3.55078000       8.61001000      13.85072000       0.00462523      -0.00294843       0.00102001
C       -5.68118000      12.29997000      13.85073000       0.01514808       0.00209165       0.00578699
C        4.97082000       1.23009000      13.85945000       0.00935166       0.02131580       0.01060515
C        2.84042000       4.92005000      13.86933000       0.09441456       0.15060253       0.00913089
C        0.71002000       8.61001000      13.84911000       0.01438079       0.00306830       0.00029264
C       -1.42038000      12.29997000      13.85073000       0.00338514       0.00224537      -0.00589216
C        9.23162000       1.23009000      13.85073000       0.00616367      -0.00398831       0.00090477
C        7.10122000       4.92005000      13.84911000       0.00647455       0.00741396       0.00021976
C        4.97082000       8.61001000      13.85029000       0.00069694      -0.01167407      -0.00822412
C        2.84042000      12.29997000      13.85183000       0.00487120      -0.00289122       0.00058361
C       13.49242000       1.23009000      13.85074000       0.00512236       0.00758418       0.00571756
C       11.36202000       4.92005000      13.85073000       0.01126734      -0.00253483      -0.00590762
C        9.23162000       8.61001000      13.85184000       0.00597946      -0.00368061       0.00052559
C        7.10122000      12.29997000      13.85001000       0.00258971      -0.00798864       0.00120089
C        2.84059000       0.00000000      13.86935000       0.08672130      -0.15430234       0.00927526
C        0.71019000       3.68996000      13.89365000      -0.10010944       0.16906175      -0.00170118
C       -1.42021000       7.37992000      13.85000000      -0.00504718       0.00460160       0.00100821
C       -3.55061000      11.06988000      13.85032000      -0.00710560       0.00835158      -0.00840301
C        7.10139000       0.00000000      13.84912000      -0.00118044      -0.01099358       0.00039406
C        4.97099000       3.68996000      13.85945000       0.00150007      -0.02495933       0.01076997
C        2.84059000       7.37992000      13.85073000       0.00729845      -0.00548571       0.00573951
C        0.71019000      11.06988000      13.85186000      -0.00167000       0.00033468       0.00047638
C       11.36219000       0.00000000      13.85071000       0.00345226      -0.00100239      -0.00633386
C        9.23179000       3.68996000      13.85075000      -0.00160136       0.00038248       0.00083859
C        7.10139000       7.37992000      13.85071000      -0.00448222      -0.00570334      -0.00628707
C        4.97099000      11.06988000      13.85072000      -0.00318394      -0.00043805       0.00092028
C       15.62299000       0.00000000      13.85951000       0.01712715      -0.01579310       0.01077378
C       13.49259000       3.68996000      13.85075000      -0.00266584      -0.01117078       0.00559213
C       11.36219000       7.37992000      13.85186000      -0.00306913      -0.00049179       0.00054519
C        9.23179000      11.06988000      13.84910000       0.00649580      -0.00639388       0.00055600
C        0.00000000       0.00000000      10.13060000      -0.08874014      -0.15160978      -0.00937176
C       -2.13040000       3.68996000      10.14056000      -0.00353461      -0.02223000      -0.01108962
C       12.78240000       7.37992000      10.14928000       0.00251366      -0.00299970       0.00617088
C       -6.39120000      11.06988000      10.15090000      -0.00851675      -0.00373592      -0.00041995
C        4.26080000       0.00000000      10.14056000      -0.01916641      -0.01315537      -0.01109736
C        2.13040000       3.68996000      10.10635000       0.09808244       0.17187172       0.00177267
C       -0.00000000       7.37992000      10.14928000      -0.00935020      -0.00276030      -0.00583213
C       -2.13040000      11.06988000      10.14924000       0.00112979       0.00229498      -0.00086764
C        8.52160000       0.00000000      10.14928000      -0.00562583       0.00164208       0.00611198
C        6.39120000       3.68996000      10.14928000       0.00047151      -0.00852067      -0.00588936
C        4.26080000       7.37992000      10.15000000       0.00302848       0.00732077      -0.00115309
C        2.13040000      11.06988000      10.14817000      -0.00037414       0.00307528      -0.00076303
C       12.78240000       0.00000000      10.15090000      -0.00089232      -0.00828759      -0.00052839
C       10.65200000       3.68996000      10.14924000      -0.00057179       0.00305425      -0.00087401
C        8.52160000       7.37992000      10.14817000       0.00091945       0.00216025      -0.00082070
C        6.39120000      11.06988000      10.14972000       0.00503903       0.01102696       0.00810560
C       -0.00009000       2.46002000      10.10630000      -0.19353157       0.00067363       0.00189020
C       -2.13049000       6.14998000      10.14928000       0.01165791       0.00620178      -0.00592467
C       -4.26089000       9.83995000      10.14928000       0.00214564      -0.00081210      -0.00110975
C       -6.39129000      13.52991000      10.14051000       0.02539716       0.00922034      -0.01074682
C        4.26071000       2.46002000      10.13068000       0.18000132       0.00053375      -0.00931418
C        2.13031000       6.14998000      10.14055000       0.02537130      -0.00849398      -0.01079206
C       -0.00009000       9.83995000      10.14928000       0.00577497      -0.00444436       0.00603012
C       -2.13049000      13.52991000      10.15086000       0.01223625       0.00470312      -0.00023834
C        8.52151000       2.46002000      10.14970000      -0.00758320       0.00058313       0.00813630
C        6.39111000       6.14998000      10.15090000       0.01201152      -0.00389589      -0.00055315
C        4.26071000       9.83995000      10.14928000       0.00199607       0.00114428      -0.00097045
C        2.13031000      13.52991000      10.14817000       0.00209763      -0.00049030      -0.00075632
C       12.78231000       2.46002000      10.15000000      -0.00341708       0.00056030      -0.00135681
C       10.65191000       6.14998000      10.14813000       0.00204641       0.00129482      -0.00052367
C        8.52151000       9.83995000      10.14929000       0.00576803       0.00484224       0.00623329
C        6.39111000      13.52991000      10.14924000       0.01150522      -0.00542378      -0.00571835
C        2.13049000       1.22994000      10.10629000       0.09188128      -0.16665490       0.00186065
C        0.00009000       4.91990000      10.13069000      -0.09467852       0.15669625      -0.00921756
C       -2.13031000       8.60986000      10.14970000      -0.00093659      -0.00554789       0.00818515
C       -4.26071000      12.29982000      10.15000000      -0.00294207      -0.00181392      -0.00131156
C        6.39129000       1.22994000      10.14928000      -0.00557335       0.01370363      -0.00595392
C        4.26089000       4.91990000      10.14054000      -0.02523081       0.01838106      -0.01086815
C        2.13049000       8.60986000      10.15090000      -0.01462818       0.00919701      -0.00049293
C        0.00009000      12.29982000      10.14813000      -0.00511519       0.00323092      -0.00051130
C       10.65208000       1.22994000      10.14928000      -0.00614331       0.00214578      -0.00117426
C        8.52168000       4.91990000      10.14929000      -0.01121705       0.00359469       0.00592027
C        6.39129000       8.60986000      10.14928000      -0.00489464       0.00320944      -0.00098528
C        4.26089000      12.29982000      10.14929000      -0.00360588       0.00839696       0.00623200
C       14.91288000       1.22994000      10.14051000      -0.00921235       0.02742067      -0.01076969
C       12.78248000       4.91990000      10.15086000      -0.00640552       0.01361918      -0.00023561
C       10.65208000       8.60986000      10.14816000      -0.00585481       0.00247967      -0.00068018
C        8.52168000      12.29982000      10.14924000      -0.01495708       0.00821030      -0.00564557
C       15.62290000       2.46002000      10.13065000      -0.17774531      -0.00209998      -0.00920163
C       -3.55069000       6.14998000      10.15088000      -0.01026430      -0.00658592      -0.00039008
C       -5.68109000       9.83995000      10.14929000      -0.00400579       0.00216145       0.00626291
C        9.23170000      13.52991000      10.14049000      -0.02322445       0.00662913      -0.01078657
C        2.84050000       2.46002000      10.10633000       0.19572294      -0.00206667       0.00179286
C        0.71010000       6.14998000      10.14056000      -0.02307178      -0.01107888      -0.01082125
C       -1.42030000       9.83995000      10.14925000       0.00031288      -0.00143983      -0.00090394
C       -3.55069000      13.52991000      10.14925000      -0.00964127      -0.00805593      -0.00558110
C        7.10130000       2.46002000      10.15000000       0.00570892      -0.00204628      -0.00099555
C        4.97090000       6.14998000      10.14926000      -0.00920182       0.00363161      -0.00567359
C        2.84050000       9.83995000      10.14929000      -0.00349319      -0.00703091       0.00626042
C        0.71010000      13.52991000      10.14814000       0.00021685      -0.00308244      -0.00048403
C       11.36210000       2.46002000      10.14968000       0.00976934      -0.00210684       0.00840885
C        9.23170000       6.14998000      10.14814000       0.00013779      -0.00137155      -0.00041850
C        7.10130000       9.83995000      10.14928000       0.00032280      -0.00337337      -0.00091463
C        4.97090000      13.52991000      10.15089000      -0.00975529       0.00211748      -0.00043231
C        0.71002000       1.23009000      10.10626000      -0.09207340      -0.17266093       0.00201064
C       -1.42038000       4.92005000      10.14055000       0.02499062       0.01222423      -0.01068974
C       -3.55078000       8.61001000      10.14928000       0.00462522      -0.00294864      -0.00101999
C       -5.68118000      12.29997000      10.14927000       0.01514806       0.00209153      -0.00578699
C        4.97082000       1.23009000      10.14055000       0.00935200       0.02131594      -0.01060515
C        2.84042000       4.92005000      10.13067000       0.09441488       0.15060313      -0.00913085
C        0.71002000       8.61001000      10.15089000       0.01438140       0.00306911      -0.00029264
C       -1.42038000      12.29997000      10.14927000       0.00338524       0.00224529       0.00589216
C        9.23162000       1.23009000      10.14927000       0.00616431      -0.00398871      -0.00090478
C        7.10122000       4.92005000      10.15089000       0.00647401       0.00741327      -0.00021977
C        4.97082000       8.61001000      10.14971000       0.00069652      -0.01167434       0.00822412
C        2.84042000      12.29997000      10.14817000       0.00487132      -0.00289108      -0.00058362
C       13.49242000       1.23009000      10.14926000       0.00512220       0.00758415      -0.00571756
C       11.36202000       4.92005000      10.14927000       0.01126790      -0.00253493       0.00590761
C        9.23162000       8.61001000      10.14816000       0.00597942      -0.00368021      -0.00052560
C        7.10122000      12.29997000      10.14999000       0.00259003      -0.00798845      -0.00120089
C        2.84059000       0.00000000      10.13065000       0.08672100      -0.15430294      -0.00927528
C        0.71019000       3.68996000      10.10635000      -0.10010988       0.16906191       0.00170119
C       -1.42021000       7.37992000      10.15000000      -0.00504799       0.00460209      -0.00100819
C       -3.55061000      11.06988000      10.14968000      -0.00710544       0.00835165       0.00840301
C        7.10139000       0.00000000      10.15088000      -0.00118082      -0.01099344      -0.00039407
C        4.97099000       3.68996000      10.14055000       0.00150036      -0.02495937      -0.01076998
C        2.84059000       7.37992000      10.14927000       0.00729833      -0.00548657      -0.00573951
C        0.71019000      11.06988000      10.14814000      -0.00167007       0.00033492      -0.00047639
C       11.36219000       0.00000000      10.14929000       0.00345273      -0.00100283       0.00633388
C        9.23179000       3.68996000      10.14925000      -0.00160143       0.00038265      -0.00083859
C        7.10139000       7.37992000      10.14929000      -0.00448241      -0.00570348       0.00628708
C        4.97099000      11.06988000      10.14928000      -0.00318410      -0.00043873      -0.00092028
C       15.62299000       0.00000000      10.14049000       0.01712731      -0.01579255      -0.01077382
C       13.49259000       3.68996000      10.14925000      -0.00266527      -0.01117024      -0.00559214
C       11.36219000       7.37992000      10.14814000      -0.00306963      -0.00049146      -0.00054519
C        9.23179000      11.06988000      10.15090000       0.00649598      -0.00639390      -0.00055599
Li       1.42029000       2.45973000      12.00000000      -0.00006445       0.00001947       0.00000002
193
Lattice="17.043199539 0.0 0.0 -8.52159977 14.759843763 0.0 0.0 0.0 24.0" Properties=species:S:1:pos:R:3:forces:R:3 energy=-1786.0433349609375 stress="-0.06846775114536285 1.0119781109096948e-05 -1.3951057323269289e-11 1.0119781109096948e-05 -0.06847928464412689 2.8251020967040574e-10 -1.3951057323269289e-11 2.8251020967040574e-10 -9.28282315726392e-05" free_energy=-1786.0433349609375 pbc="T T T"
C        0.00000000       0.00000000      13.86953388      -0.08876558      -0.15165307       0.00908166
C       -2.13040000       3.68996000      13.85959842      -0.00356648      -0.02222016       0.01093251
C       12.78240000       7.37992000      13.85063184       0.00250858      -0.00299520      -0.00502728
C       -6.39120000      11.06988000      13.84910600      -0.00851561      -0.00372478       0.00016404
C        4.26080000       0.00000000      13.85959853      -0.01914015      -0.01317720       0.01093994
C        2.13040000       3.68996000      13.89362468       0.09803147       0.17178248      -0.00143497
C        0.00000000       7.37992000      13.85080332      -0.00935027      -0.00277016       0.00575788
C       -2.13040000      11.06988000      13.85077239       0.00112925       0.00229561      -0.00021858
C        8.52160000       0.00000000      13.85063269      -0.00561860       0.00164024      -0.00499231
C        6.39120000       3.68996000      13.85080413       0.00045968      -0.00852253       0.00578831
C        4.26080000       7.37992000      13.85001647       0.00302480       0.00731547       0.00085471
C        2.13040000      11.06988000      13.85184090      -0.00037301       0.00307313       0.00035391
C       12.78240000       0.00000000      13.84910755      -0.00088547      -0.00828233       0.00022664
C       10.65200000       3.68996000      13.85077249      -0.00057061       0.00305244      -0.00021895
C        8.52160000       7.37992000      13.85184172       0.00091759       0.00216141       0.00038796
C        6.39120000      11.06988000      13.85016421       0.00503782       0.01102748      -0.00653675
C       -0.00009000       2.46002000      13.89367300      -0.19343263       0.00067167      -0.00155319
C       -2.13049000       6.14998000      13.85080464       0.01166463       0.00619643       0.00583180
C       -4.26089000       9.83995000      13.85073585       0.00214533      -0.00081106      -0.00004101
C       -6.39129000      13.52991000      13.85964353       0.02540388       0.00918837       0.01067111
C        4.26071000       2.46002000      13.86945306       0.18004405       0.00053539       0.00902198
C        2.13031000       6.14998000      13.85960417       0.02537598      -0.00846762       0.01070944
C       -0.00009000       9.83995000      13.85063386       0.00577610      -0.00443721      -0.00492960
C       -2.13049000      13.52991000      13.84914340       0.01222796       0.00470533       0.00001864
C        8.52151000       2.46002000      13.85018377      -0.00758009       0.00058397      -0.00657694
C        6.39111000       6.14998000      13.84910790       0.01200241      -0.00389908       0.00023874
C        4.26071000       9.83995000      13.85073386       0.00199538       0.00114441      -0.00015627
C        2.13031000      13.52991000      13.85184080       0.00209806      -0.00048894       0.00034207
C       12.78231000       2.46002000      13.85001938      -0.00340933       0.00055979       0.00100199
C       10.65191000       6.14998000      13.85187748       0.00204719       0.00129155       0.00018859
C        8.52151000       9.83995000      13.85062095       0.00576628       0.00483331      -0.00509440
C        6.39111000      13.52991000      13.85084169       0.01151306      -0.00541881       0.00568975
C        2.13049000       1.22994000      13.89368342       0.09182376      -0.16656129      -0.00152506
C        0.00009000       4.91990000      13.86944168      -0.09470446       0.15673336       0.00896700
C       -2.13031000       8.60986000      13.85018307      -0.00093593      -0.00554780      -0.00661368
C       -4.26071000      12.29982000      13.85001874      -0.00294863      -0.00180904       0.00098086
C        6.39129000       1.22994000      13.85080506      -0.00558232       0.01370440       0.00584336
C        4.26089000       4.91990000      13.85961526      -0.02520629       0.01839858       0.01074960
C        2.13049000       8.60986000      13.84910704      -0.01462550       0.00919038       0.00020378
C        0.00009000      12.29982000      13.85187730      -0.00511846       0.00323031       0.00017673
C       10.65208000       1.22994000      13.85073678      -0.00614207       0.00214717      -0.00000337
C        8.52168000       4.91990000      13.85062542      -0.01121147       0.00359584      -0.00485954
C        6.39129000       8.60986000      13.85073408      -0.00489541       0.00321003      -0.00014331
C        4.26089000      12.29982000      13.85062097      -0.00361288       0.00839216      -0.00509471
C       14.91288000       1.22994000      13.85964385      -0.00923938       0.02741116       0.01067564
C       12.78248000       4.91990000      13.84914337      -0.00639484       0.01361281       0.00001885
C       10.65208000       8.60986000      13.85184972      -0.00585510       0.00248286       0.00029654
C        8.52168000      12.29982000      13.85084065      -0.01495708       0.00822039       0.00563526
C       15.62290000       2.46002000      13.86948145      -0.17779008      -0.00209932       0.00898865
C       -3.55069000       6.14998000      13.84912557      -0.01025514      -0.00658883       0.00011927
C       -5.68109000       9.83995000      13.85062053      -0.00400391       0.00215430      -0.00509435
C        9.23170000      13.52991000      13.85966409      -0.02323006       0.00660032       0.01070521
C        2.84050000       2.46002000      13.89364439       0.19561797      -0.00206430      -0.00144404
C        0.71010000       6.14998000      13.85959459      -0.02307862      -0.01105003       0.01073925
C       -1.42030000       9.83995000      13.85076291       0.00031220      -0.00144084      -0.00019384
C       -3.55069000      13.52991000      13.85082973      -0.00965023      -0.00804541       0.00557435
C        7.10130000       2.46002000      13.85001422       0.00570330      -0.00204761       0.00076707
C        4.97090000       6.14998000      13.85082105      -0.00920885       0.00362582       0.00565709
C        2.84050000       9.83995000      13.85062057      -0.00349219      -0.00702370      -0.00508532
C        0.71010000      13.52991000      13.85186691       0.00021613      -0.00308080       0.00016879
C       11.36210000       2.46002000      13.85019987       0.00976765      -0.00210822      -0.00675757
C        9.23170000       6.14998000      13.85186598       0.00013935      -0.00137291       0.00013920
C        7.10130000       9.83995000      13.85073307       0.00032306      -0.00337419      -0.00017101
C        4.97090000      13.52991000      13.84911618      -0.00974576       0.00212055       0.00016082
C        0.71002000       1.23009000      13.89371128      -0.09201665      -0.17256659      -0.00163555
C       -1.42038000       4.92005000      13.85960271       0.02497116       0.01224113       0.01066094
C       -3.55078000       8.61001000      13.85073457       0.00462674      -0.00294908      -0.00007983
C       -5.68118000      12.29997000      13.85081267       0.01514685       0.00210147       0.00574069
C        4.97082000       1.23009000      13.85960150       0.00937932       0.02130434       0.01060471
C        2.84042000       4.92005000      13.86946044       0.09443731       0.15064269       0.00891064
C        0.71002000       8.61001000      13.84911418       0.01437797       0.00306167       0.00006489
C       -1.42038000      12.29997000      13.85064583       0.00338865       0.00224354      -0.00483599
C        9.23162000       1.23009000      13.85074293       0.00616270      -0.00398582      -0.00017127
C        7.10122000       4.92005000      13.84911314       0.00646769       0.00740641       0.00002683
C        4.97082000       8.61001000      13.85017251       0.00069839      -0.01167476      -0.00661761
C        2.84042000      12.29997000      13.85183834       0.00487491      -0.00289174       0.00026401
C       13.49242000       1.23009000      13.85082168       0.00513276       0.00758891       0.00571354
C       11.36202000       4.92005000      13.85064561       0.01125954      -0.00253164      -0.00485050
C        9.23162000       8.61001000      13.85184751       0.00597964      -0.00367749       0.00021129
C        7.10122000      12.29997000      13.85002716       0.00259481      -0.00798072       0.00089707
C        2.84059000       0.00000000      13.86948250       0.08674703      -0.15434621       0.00905133
C        0.71019000       3.68996000      13.89362570      -0.10005759       0.16897249      -0.00137585
C       -1.42021000       7.37992000      13.85001440      -0.00504202       0.00459723       0.00076597
C       -3.55061000      11.06988000      13.85019996      -0.00710523       0.00834931      -0.00676321
C        7.10139000       0.00000000      13.84912563      -0.00118853      -0.01098648       0.00013360