197
Lattice="17.219999313 0.0 0.0 -8.609999657 14.912956858 0.0 0.0 0.0 24.0" Properties=species:S:1:pos:R:3:forces:R:3 energy=-1823.1549072265625 stress="-0.06815598905086517 2.6191587494395208e-06 -2.4495093953191827e-08 2.6191587494395208e-06 -0.06815319508314133 1.1423922252618013e-08 -2.4495093953191827e-08 1.1423922252618013e-08 -0.00037372304359450936" free_energy=-1823.1549072265625 pbc="T T T"
C        0.00000000       0.00000000      13.92041000       0.00002343      -0.25245845      -0.00536749
C       -1.23002000       2.13047000      13.92067000      -0.21895103       0.12564567      -0.00632156
C       14.76004000       4.26078000      13.82984000      -0.00668863      -0.00976825      -0.00447856
C       13.53001000       6.39125000      13.77393000       0.00491592      -0.00946071       0.02016901
C       -4.92001000       8.52171000      13.76991000      -0.00033763      -0.00001873      -0.02050045
C       11.06996000      10.65218000      13.77404000      -0.00505145       0.00525340       0.01989782
C        9.84002000      12.78249000      13.82982000      -0.01362445       0.00395854      -0.00453164
C        2.46005000       0.00000000      13.86049000       0.06811050      -0.04021951       0.04498527
C        1.23002000       2.13047000      13.92074000       0.21836859       0.12523405      -0.00648938
C        0.00009000       4.26078000      13.86050000      -0.00331751       0.08300146       0.04480125
C       -1.22994000       6.39125000      13.79365000      -0.00957324      -0.00300704      -0.00360333
C       -2.45996000       8.52171000      13.76992000      -0.00544578      -0.00104618      -0.00656021
C       -3.68999000      10.65218000      13.76995000      -0.00294861      -0.00767768      -0.00708203
C       -4.91993000      12.78249000      13.79364000      -0.00727004      -0.00592730      -0.00288957
C        4.91993000       0.00000000      13.79361000       0.00539079       0.01030065      -0.00296583
C        3.68990000       2.13047000      13.82985000      -0.00625384       0.01091884      -0.00379995
C        2.45996000       4.26078000      13.82984000       0.00504084      -0.00853802      -0.00444556
C        1.22994000       6.39125000      13.79362000       0.01220788      -0.00123514      -0.00364462
C       -0.00009000       8.52171000      13.77010000       0.00352384      -0.00178185       0.00035371
C       -1.23011000      10.65218000      13.76999000       0.00436922      -0.00204456      -0.00193613
C       -2.46005000      12.78249000      13.77012000       0.00070423       0.00379522       0.00002271
C        7.37998000       0.00000000      13.76992000       0.00144782       0.00431067      -0.00725870
C        6.14995000       2.13047000      13.77403000      -0.01045397      -0.00023414       0.01955138
C        4.92001000       4.26078000      13.78104000      -0.02123826      -0.00711059       0.01400900
C        3.68999000       6.39125000      13.77392000      -0.00502370      -0.00950726       0.01992182
C        2.45996000       8.52171000      13.76994000       0.00479639      -0.00068257      -0.00720409
C        1.22994000      10.65218000      13.76996000      -0.00010071      -0.00341701      -0.00163093
C        0.00000000      12.78249000      13.76994000       0.00002341       0.00034476      -0.00163833
C        9.84002000       0.00000000      13.76992000      -0.00164214       0.00431786      -0.00741290
C        8.61000000       2.13047000      13.76988000      -0.00013551      -0.00043415      -0.02007446
C        7.38006000       4.26078000      13.76978000      -0.00837369      -0.00046771      -0.02043247
C        6.15004000       6.39125000      13.76974000      -0.00680992      -0.00288367      -0.02029714
C        4.92001000       8.52171000      13.76991000       0.00025911      -0.00007358      -0.02044511
C        3.68999000      10.65218000      13.76994000       0.00319156      -0.00731345      -0.00706311
C        2.46005000      12.78249000      13.77010000       0.00244641       0.00248916      -0.00010881
C       12.30007000       0.00000000      13.79361000      -0.00641058       0.00939293      -0.00314662
C       11.07005000       2.13047000      13.77411000       0.00614183       0.00018690       0.01933362
C        9.84011000       4.26078000      13.76984000      -0.00107086      -0.00010207      -0.02056470
C        8.61009000       6.39125000      13.77011000      -0.00460629       0.00040874       0.00529981
C        7.38006000       8.52171000      13.76977000      -0.00503031       0.00753715      -0.02025288
C        6.15004000      10.65218000      13.77394000       0.00180180       0.00565011       0.02035084
C        4.92010000      12.78249000      13.79362000       0.00228935      -0.00513636      -0.00344328
C       14.75995000       0.00000000      13.86057000      -0.06841318      -0.03958561       0.04373958
C       13.52993000       2.13047000      13.82984000       0.00998211       0.00996733      -0.00325419
C       12.29999000       4.26078000      13.78114000       0.01676712      -0.00677302       0.01382709
C       11.06996000       6.39125000      13.76982000       0.00713206      -0.00255262      -0.02106177
C        9.83994000       8.52171000      13.76984000       0.00115484       0.00744323      -0.02078618
C        8.60991000      10.65218000      13.78117000       0.00125973       0.01814114       0.01348540
C        7.37998000      12.78249000      13.82981000       0.01411046       0.00421432      -0.00491601
C       -0.00000000       1.42031000      13.97015000       0.00007039      -0.00029919       0.00215496
C       -1.23002000       3.55078000      13.87515000      -0.04223462       0.13296716       0.05794313
C       -2.45996000       5.68109000      13.79670000       0.00893121       0.00784250       0.00599590
C       -3.68999000       7.81156000      13.76996000      -0.00037801      -0.00313708      -0.00199009
C       -4.92001000       9.94202000      13.76994000      -0.00305779       0.00041400      -0.00108869
C       -6.14995000      12.07234000      13.79680000       0.00999515       0.00774520       0.00543100
C       -7.37998000      14.20280000      13.87499000       0.09611101      -0.10668049       0.05804754
C        2.46005000       1.42031000      13.87526000       0.13730469      -0.03093516       0.05683168
C        1.23002000       3.55078000      13.87522000       0.04407478       0.13156417       0.05760960
C        0.00009000       5.68109000      13.81504000      -0.00347238      -0.00343299      -0.00148194
C       -1.22994000       7.81156000      13.77275000      -0.00323507      -0.01450867       0.02397347
C       -2.45996000       9.94202000      13.76992000      -0.00536382      -0.00307103      -0.00878863
C       -3.68990000      12.07234000      13.77275000      -0.01529317       0.00871389       0.02421019
C       -4.91993000      14.20280000      13.81509000      -0.00564865       0.00025498      -0.00225828
C        4.91993000       1.42031000      13.79676000       0.00220988      -0.01107612       0.00556333
C        3.68990000       3.55078000      13.81629000       0.03087874       0.01268847      -0.00774824
C        2.45996000       5.68109000      13.79668000      -0.00820473       0.00819309       0.00602965
C        1.22994000       7.81156000      13.77269000       0.00049271      -0.01272763       0.02464448
C       -0.00009000       9.94202000      13.76992000       0.00086974      -0.00429258      -0.00406180
C       -1.23002000      12.07234000      13.76993000      -0.00350110       0.00584372      -0.00409726
C       -2.46005000      14.20280000      13.77267000      -0.01053917       0.00699441       0.02481139
C        7.37998000       1.42031000      13.76995000      -0.00254422       0.00189719      -0.00150882
C        6.14995000       3.55078000      13.77105000       0.00358694      -0.00726750       0.02785928
C        4.92001000       5.68109000      13.77096000      -0.00238769       0.00343484       0.02816649
C        3.68999000       7.81156000      13.76994000       0.00037881      -0.00316639      -0.00156570
C        2.45996000       9.94202000      13.76992000       0.00200624      -0.00178685      -0.00878802
C        1.23002000      12.07234000      13.76993000       0.00310671       0.00539866      -0.00432885
C        0.00000000      14.20280000      13.76988000      -0.00001835       0.00221306      -0.00870390
C        9.84002000       1.42031000      13.76996000       0.00209193       0.00162314      -0.00122315
C        8.61000000       3.55078000      13.76995000       0.00197860      -0.00270773       0.00005505
C        7.38006000       5.68109000      13.77009000       0.00077635       0.00111789       0.00440394
C        6.15004000       7.81156000      13.76994000       0.00042157      -0.00106267      -0.00027977
C        4.92001000       9.94202000      13.76995000       0.00250146       0.00009696      -0.00166385
C        3.69007000      12.07234000      13.77270000       0.01039864       0.00970664       0.02450738
C        2.46005000      14.20280000      13.77264000       0.01067784       0.00628784       0.02508414
C       12.29990000       1.42031000      13.79680000       0.00289678      -0.01187227       0.00557273
C       11.06988000       3.55078000      13.77116000       0.00568299      -0.00763043       0.02778155
C        9.83994000       5.68109000      13.77011000       0.00313011       0.00098851       0.00492802
C        8.60991000       7.81156000      13.77010000       0.00454935      -0.00185532       0.00474639
C        7.37989000       9.94202000      13.77104000       0.00073919      -0.00027961       0.02809592
C        6.14995000      12.07234000      13.79672000      -0.00675159       0.00736516       0.00588706
C        4.91993000      14.20280000      13.81507000       0.00664146       0.00117868      -0.00153760
C       14.75995000       1.42031000      13.87522000      -0.14030476      -0.02968358       0.05710170
C       13.52993000       3.55078000      13.81636000      -0.02510939       0.01231105      -0.00813835
C       12.29999000       5.68109000      13.77100000       0.00251103       0.00348123       0.02853301
C       11.06996000       7.81156000      13.76995000      -0.00080741      -0.00073196       0.00037375
C        9.83994000       9.94202000      13.77112000       0.00359231       0.00014105       0.02801475
C        8.61000000      12.07234000      13.81632000      -0.00040972      -0.02857332      -0.00765286
C        7.37998000      14.20280000      13.87499000      -0.09600910      -0.10671466       0.05853112
C        0.00000000       0.00000000      10.07687000      -0.00007827      -0.27350447      -0.00931483
C       -1.23002000       2.13047000      10.07684000      -0.23737255       0.13594440      -0.00895132
C       14.76004000       4.26078000      10.17024000      -0.02213160      -0.02202854       0.00192555
C       13.53001000       6.39125000      10.22934000       0.00762827       0.00489304      -0.02588972
C       -4.92001000       8.52171000      10.23289000       0.00034232       0.00019014       0.01345005
C       11.06996000      10.65218000      10.22942000       0.01064454       0.00029681      -0.02572545
C        9.84002000      12.78249000      10.17025000      -0.03280403      -0.00498135       0.00202643
C        2.46005000       0.00000000      10.13941000       0.16517691      -0.09585059      -0.05414384
C        1.23002000       2.13047000      10.07692000       0.23668201       0.13554971      -0.00938080
C        0.00009000       4.26078000      10.13950000      -0.00124417       0.19489093      -0.05483541
C       -1.22994000       6.39125000      10.21091000       0.01226162      -0.01432786      -0.00745692
C       -2.45996000       8.52171000      10.23253000      -0.00174225      -0.00732221       0.01024063
C       -3.68999000      10.65218000      10.23259000      -0.00460928      -0.00146598       0.01001975
C       -4.91993000      12.78249000      10.21082000      -0.00606627       0.01834075      -0.00663160
C        4.91993000       0.00000000      10.21091000      -0.01424793      -0.00421849      -0.00734446
C        3.68990000       2.13047000      10.17028000      -0.00712023       0.03004852       0.00208768
C        2.45996000       4.26078000      10.17027000       0.02539705      -0.02235025       0.00254879
C        1.22994000       6.39125000      10.21092000      -0.00839498      -0.01440528      -0.00735427
C       -0.00009000       8.52171000      10.23006000       0.00459553      -0.01175182       0.00263965
C       -1.23011000      10.65218000      10.23006000       0.00557735      -0.00476093       0.00024392
C       -2.46005000      12.78249000      10.23005000      -0.00535649       0.00602236       0.00260297
C        7.37998000       0.00000000      10.23239000      -0.00551095       0.00462305       0.01172161
C        6.14995000       2.13047000      10.22936000       0.00089629      -0.00998934      -0.02647285
C        4.92001000       4.26078000      10.22030000       0.00036366       0.00405883      -0.01975912
C        3.68999000       6.39125000      10.22941000      -0.00758237       0.00497896      -0.02513465
C        2.45996000       8.52171000      10.23253000       0.00144225      -0.00698345       0.01034134
C        1.22994000      10.65218000      10.23009000       0.00385731      -0.00437769      -0.00048089
C        0.00000000      12.78249000      10.23008000       0.00015703       0.00211929      -0.00035711
C        9.84002000       0.00000000      10.23240000       0.00562307       0.00462112       0.01190286
C        8.61000000       2.13047000      10.23283000      -0.00000688      -0.00142391       0.01151489
C        7.38006000       4.26078000      10.23016000      -0.00064829       0.00286952       0.01203915
C        6.15004000       6.39125000      10.23044000      -0.00105883       0.00012395       0.01109401
C        4.92001000       8.52171000      10.23288000      -0.00026246       0.00022236       0.01530647
C        3.68999000      10.65218000      10.23264000       0.00902292      -0.00116971       0.01013134
C        2.46005000      12.78249000      10.23007000       0.00959677       0.00640671       0.00326894
C       12.30007000       0.00000000      10.21108000       0.01542111      -0.00507710      -0.00813890
C       11.07005000       2.13047000      10.22934000      -0.00405125      -0.01127410      -0.02677924
C        9.84011000       4.26078000      10.23018000      -0.00361978       0.00148444       0.01193732
C        8.61009000       6.39125000      10.23005000      -0.00353131      -0.00141342      -0.00289099
C        7.38006000       8.52171000      10.23043000      -0.00388428      -0.00073752       0.01143856
C        6.15004000      10.65218000      10.22953000      -0.00899600      -0.00098666      -0.02486855
C        4.92010000      12.78249000      10.21108000       0.00238404       0.01749511      -0.00758390
C       14.75995000       0.00000000      10.13941000      -0.16518040      -0.09523194      -0.05468746
C       13.52993000       2.13047000      10.17026000       0.01208701       0.03078434       0.00143518
C       12.29999000       4.26078000      10.22015000      -0.00060938       0.00445401      -0.01935227
C       11.06996000       6.39125000      10.23024000       0.00172641       0.00047852       0.01272323
C        9.83994000       8.52171000      10.23027000       0.00122188       0.00104504       0.01231871
C        8.60991000      10.65218000      10.22033000       0.00335267      -0.00403828      -0.01996724
C        7.37998000      12.78249000      10.17024000       0.03339910      -0.00463337       0.00245874
C        1.23002000       0.71016000      10.07699000       0.23445056      -0.13551590      -0.01049980
C        0.00000000       2.84062000      10.07697000       0.00044155       0.26747683      -0.01031318
C       -1.22994000       4.97094000      10.17024000       0.03320955       0.00688181       0.00157955
C       -2.45996000       7.10140000      10.22935000      -0.00877290      -0.00367079      -0.02664190
C       -3.68999000       9.23187000      10.23283000      -0.00042820      -0.00101433       0.01108812
C       -4.91993000      11.36218000      10.22939000      -0.01013993      -0.00170090      -0.02697653
C       -6.14995000      13.49265000      10.17021000       0.02165495       0.02560955       0.00096832
C        3.69007000       0.71016000      10.17024000      -0.01531370      -0.03163726       0.00118184
C        2.46005000       2.84062000      10.13939000       0.15760817       0.09021592      -0.05881289
C        1.23011000       4.97094000      10.17027000      -0.03743976       0.00723632       0.00136770
C        0.00009000       7.10140000      10.22025000      -0.00454535       0.00151497      -0.01976733
C       -1.22994000       9.23187000      10.23012000      -0.00493535      -0.00099644       0.00844396
C       -2.45988000      11.36218000      10.23016000      -0.00769406       0.00391144       0.00826823
C       -3.68990000      13.49265000      10.22019000      -0.00364651      -0.00013930      -0.01972859
C        6.14995000       0.71016000      10.22937000       0.00164529       0.00938157      -0.02732623
C        4.91993000       2.84062000      10.21038000      -0.01665511       0.00116718      -0.00611961
C        3.68999000       4.97094000      10.21045000      -0.00471498      -0.01639481      -0.00681700
C        2.45996000       7.10140000      10.22937000       0.00916754      -0.00334840      -0.02681366
C        1.22994000       9.23187000      10.23013000       0.00102073      -0.00111933       0.00850671
C       -0.00000000      11.36218000      10.23004000      -0.00196511       0.00399048      -0.01116176
C       -1.23002000      13.49265000      10.23009000       0.00000999       0.00116324       0.00809640
C        8.61000000       0.71016000      10.23279000       0.00005893       0.00038894       0.00970825
C        7.37998000       2.84062000      10.23189000      -0.00508663      -0.00800587       0.01121994
C        6.15004000       4.97094000      10.23006000      -0.00987538      -0.00493344      -0.00152524
C        4.92001000       7.10140000      10.23225000      -0.00653987      -0.00228047       0.00858082
C        3.68999000       9.23187000      10.23286000       0.00029889      -0.00095025       0.01052389
C        2.46005000      11.36218000      10.23012000      -0.00157010       0.00353951       0.00908044
C        1.23002000      13.49265000      10.23010000       0.00042377       0.00089100       0.00800349
C       11.07005000       0.71016000      10.22940000      -0.00178292       0.00871386      -0.02692685
C        9.84002000       2.84062000      10.23187000       0.00547093      -0.00846276       0.01145340
C        8.61009000       4.97094000      10.23003000      -0.00087721      -0.00108844      -0.00667801
C        7.38006000       7.10140000      10.23007000      -0.00177774       0.00038111      -0.00484517
C        6.15004000       9.23187000      10.23236000      -0.00209921       0.00585903       0.00783023
C        4.92010000      11.36218000      10.22956000       0.00433343      -0.00208210      -0.02718597
C        3.69007000      13.49265000      10.22043000      -0.00138241      -0.00089865      -0.02027820
C       13.52993000       0.71016000      10.17024000       0.01427482      -0.03082165       0.00207667
C       12.29990000       2.84062000      10.21027000       0.02147889       0.00218073      -0.00559200
C       11.06996000       4.97094000      10.23005000       0.01326387      -0.00365973      -0.00294300
C        9.83994000       7.10140000      10.23006000       0.00449704       0.00216968      -0.00639428
C        8.60991000       9.23187000      10.23005000       0.00349792       0.01176123      -0.00087579
C        7.37998000      11.36218000      10.21049000       0.01312976       0.01822301      -0.00686746
C        6.14995000      13.49265000      10.17023000      -0.01871524       0.02681697       0.00185520
C       15.98997000       0.71016000      10.07690000      -0.23426050      -0.13560675      -0.01008883
C       14.75995000       2.84062000      10.13938000      -0.16074216       0.08979818      -0.05916991
C       13.53001000       4.97094000      10.21028000       0.00514825      -0.01662752      -0.00600394
C       12.29999000       7.10140000      10.23209000       0.00656525      -0.00232178       0.00928153
C       11.06996000       9.23187000      10.23218000       0.00141140       0.00622447       0.00886475
C        9.84002000      11.36218000      10.21038000      -0.01491787       0.01676666      -0.00613849
C        8.61000000      13.49265000      10.13936000      -0.00002403      -0.18645132      -0.05888433
Li      -0.00020000       1.42045000      11.86120000       0.00007053      -0.00019916      -0.03064258
197
Lattice="17.219999313 0.0 0.0 -8.609999657 14.912956858 0.0 0.0 0.0 24.0" Properties=species:S:1:pos:R:3:forces:R:3 energy=-1823.1585693359375 stress="-0.0681513100862503 2.5290612484241137e-06 -3.253734348618309e-08 2.5290612484241137e-06 -0.06814847886562347 2.2656653442254537e-08 -3.253734348618309e-08 2.2656653442254537e-08 -0.0003713048645295203" free_energy=-1823.1585693359375 pbc="T T T"
C        0.00000000       0.00000000      13.92002661       0.00001862      -0.24924144       0.04331251
C       -1.23002000       2.13047000      13.92021846      -0.21610941       0.12395960       0.04251564
C       14.76004000       4.26078000      13.82952010      -0.00395366      -0.01153528       0.01843038
C       13.53001000       6.39125000      13.77537064       0.00454482      -0.00895263       0.01462717
C       -4.92001000       8.52171000      13.76844568      -0.00038630      -0.00004477      -0.00274584
C       11.06996000      10.65218000      13.77546127      -0.00478121       0.00466997       0.01457199
C        9.84002000      12.78249000      13.82949631      -0.01377866       0.00721719       0.01844325
C        2.46005000       0.00000000      13.86370323       0.06984075      -0.04124158       0.04705724
C        1.23002000       2.13047000      13.92027647       0.21552952       0.12356816       0.04222839
C        0.00009000       4.26078000      13.86370009      -0.00331813       0.08497962       0.04786794
C       -1.22994000       6.39125000      13.79339262      -0.00890426      -0.00352929       0.00923534
C       -2.45996000       8.52171000      13.76945141      -0.00527312      -0.00118915       0.00300065
C       -3.68999000      10.65218000      13.76944414      -0.00299327      -0.00745408       0.00333676
C       -4.91993000      12.78249000      13.79343360      -0.00735969      -0.00513375       0.00896386
C        4.91993000       0.00000000      13.79339816       0.00464652       0.00999548       0.00913486
C        3.68990000       2.13047000      13.82957858      -0.00904442       0.00946231       0.01801430
C        2.45996000       4.26078000      13.82952246       0.00231884      -0.01029393       0.01846411
C        1.22994000       6.39125000      13.79335967       0.01154553      -0.00176464       0.00951141
C       -0.00009000       8.52171000      13.77012526       0.00352650      -0.00183719       0.01812783
C       -1.23011000      10.65218000      13.76985170       0.00437207      -0.00204270      -0.00603966
C       -2.46005000      12.78249000      13.77012162       0.00064673       0.00383498       0.01818597
C        7.37998000       0.00000000      13.76940152       0.00122807       0.00423186       0.00351701
C        6.14995000       2.13047000      13.77542653      -0.00983345      -0.00017835       0.01430381
C        4.92001000       4.26078000      13.78204064      -0.02015373      -0.00648956       0.01832296
C        3.68999000       6.39125000      13.77534299      -0.00466464      -0.00899690       0.01467119
C        2.45996000       8.52171000      13.76942542       0.00462179      -0.00083145       0.00338027
C        1.22994000      10.65218000      13.76984350      -0.00010509      -0.00341486      -0.00599751
C        0.00000000      12.78249000      13.76982298       0.00002220       0.00034591      -0.00592040
C        9.84002000       0.00000000      13.76939051      -0.00142070       0.00424055       0.00370275
C        8.61000000       2.13047000      13.76844611      -0.00013187      -0.00038484      -0.00267902
C        7.38006000       4.26078000      13.76832054      -0.00850572      -0.00041629       0.01166198
C        6.15004000       6.39125000      13.76829020      -0.00683216      -0.00302604       0.01161464
C        4.92001000       8.52171000      13.76844964       0.00030225      -0.00010018      -0.00311700
C        3.68999000      10.65218000      13.76943549       0.00323652      -0.00708949       0.00324007
C        2.46005000      12.78249000      13.77009223       0.00250258       0.00252847       0.01833348
C       12.30007000       0.00000000      13.79338524      -0.00564718       0.00909049       0.00959330
C       11.07005000       2.13047000      13.77549097       0.00553378       0.00024039       0.01432613
C        9.84011000       4.26078000      13.76837109      -0.00093452      -0.00004781       0.01187118
C        8.61009000       6.39125000      13.77048856      -0.00460406       0.00040757       0.00650968
C        7.38006000       8.52171000      13.76832337      -0.00491721       0.00762158       0.01172150
C        6.15004000      10.65218000      13.77539363       0.00153607       0.00506817       0.01456106
C        4.92010000      12.78249000      13.79337405       0.00239147      -0.00431770       0.00954000
C       14.75995000       0.00000000      13.86369426      -0.07001478      -0.04053865       0.04753408
C       13.52993000       2.13047000      13.82960756       0.01274400       0.00851634       0.01807986
C       12.29999000       4.26078000      13.78212765       0.01567614      -0.00615647       0.01827303
C       11.06996000       6.39125000      13.76831559       0.00715161      -0.00269450       0.01218348
C        9.83994000       8.52171000      13.76835527       0.00104118       0.00753325       0.01202101
C        8.60991000      10.65218000      13.78213324       0.00126281       0.01692197       0.01829138
C        7.37998000      12.78249000      13.82945886       0.01428028       0.00753964       0.01885950
C        0.00000000       1.42031000      13.97030393       0.00007744      -0.00025474      -0.01989044
C       -1.23002000       3.55078000      13.87928879      -0.04573407       0.13815919       0.01348654
C       -2.45996000       5.68109000      13.79712828       0.00929792       0.00729416       0.00514997
C       -3.68999000       7.81156000      13.76981785      -0.00031756      -0.00327235      -0.00612969
C       -4.92001000       9.94202000      13.76986224      -0.00314234       0.00053108      -0.00619733
C       -6.14995000      12.07234000      13.79718793       0.00968350       0.00835706       0.00521091
C       -7.37998000      14.20280000      13.87913625       0.09882624      -0.11229715       0.01390760
C        2.46005000       1.42031000      13.87931941       0.14344749      -0.03050934       0.01365008
C        1.23002000       3.55078000      13.87933497       0.04755384       0.13674806       0.01332860
C        0.00009000       5.68109000      13.81493415      -0.00347715      -0.00593667       0.00640594
C       -1.22994000       7.81156000      13.77446239      -0.00343126      -0.01382211      -0.00125459
C       -2.45996000       9.94202000      13.76929224      -0.00530722      -0.00303928      -0.00966654
C       -3.68990000      12.07234000      13.77447930      -0.01479885       0.00820089      -0.00127283
C       -4.91993000      14.20280000      13.81492869      -0.00788938       0.00154206       0.00702529
C        4.91993000       1.42031000      13.79715738       0.00152869      -0.01109137       0.00540313
C        3.68990000       3.55078000      13.81573655       0.02854894       0.01134650      -0.00651041
C        2.45996000       5.68109000      13.79711069      -0.00856535       0.00765084       0.00500926
C        1.22994000       7.81156000      13.77445032       0.00069421      -0.01202580      -0.00145740
C       -0.00009000       9.94202000      13.76962987       0.00086954      -0.00425101      -0.00245091
C       -1.23002000      12.07234000      13.76963734      -0.00346027       0.00582271      -0.00268428
C       -2.46005000      14.20280000      13.77444224      -0.00983545       0.00681466      -0.00129215
C        7.37998000       1.42031000      13.76984223      -0.00268752       0.00190804      -0.00639141
C        6.14995000       3.55078000      13.77303995       0.00383404      -0.00717713       0.00632000
C        4.92001000       5.68109000      13.77297189      -0.00218803       0.00360697       0.00651069
C        3.68999000       7.81156000      13.76982816       0.00031648      -0.00329805      -0.00638073
C        2.45996000       9.94202000      13.76929228       0.00194889      -0.00175744      -0.00981195
C        1.23002000      12.07234000      13.76962080       0.00306905       0.00537841      -0.00266330
C        0.00000000      14.20280000      13.76925829      -0.00002042       0.00214529      -0.01001296
C        9.84002000       1.42031000      13.76987263       0.00223547       0.00163210      -0.00651731
C        8.61000000       3.55078000      13.76995393       0.00197928      -0.00268203      -0.02434175
C        7.38006000       5.68109000      13.77040457       0.00062706       0.00103445      -0.01587302
C        6.15004000       7.81156000      13.76992002       0.00044459      -0.00107253      -0.02429437