197
Lattice="17.219999313 0.0 0.0 -8.609999657 14.912956858 0.0 0.0 0.0 24.0" Properties=species:S:1:pos:R:3:forces:R:3 energy=-1823.20947265625 stress="-0.0684082955121994 2.499143874956644e-06 3.4404415427680135e-10 2.499143874956644e-06 -0.06840547919273376 -8.055168199128104e-10 3.4404415427680135e-10 -8.055168199128104e-10 -0.00022125575924292207" free_energy=-1823.20947265625 pbc="T T T"
C        0.00000000       0.00000000      13.87412000      -0.17358388      -0.10023366       0.01101288
C       -1.23002000       2.13047000      13.84979000      -0.15412672       0.08819204       0.01416968
C       14.76004000       4.26078000      13.83111000      -0.00836793      -0.00577595       0.01163407
C       13.53001000       6.39125000      13.83006000       0.00552934      -0.00239351      -0.00216306
C       -4.92001000       8.52171000      13.83006000       0.00055326       0.00607962      -0.00207774
C       11.06996000      10.65218000      13.83111000      -0.01044720      -0.00395374       0.01178693
C        9.84002000      12.78249000      13.84974000       0.00017172      -0.17679282       0.01426817
C        2.46005000       0.00000000      13.87429000       0.17272572      -0.10069171       0.00998124
C        1.23002000       2.13047000      13.87428000      -0.00048263       0.19926579       0.00981805
C        0.00009000       4.26078000      13.84011000       0.02186516       0.00677488       0.01154852
C       -1.22994000       6.39125000      13.83005000      -0.01154749       0.00051968      -0.00563430
C       -2.45996000       8.52171000      13.83007000      -0.00156488      -0.00069304       0.00196711
C       -3.68999000      10.65218000      13.83005000      -0.00462265      -0.01404440      -0.00530672
C       -4.91993000      12.78249000      13.84019000       0.01500954       0.02063467       0.01120147
C        4.91993000       0.00000000      13.84035000      -0.00646828      -0.02229107       0.01038281
C        3.68990000       2.13047000      13.84979000       0.15728451       0.08941334       0.01482809
C        2.45996000       4.26078000      13.84027000      -0.02430190       0.00839873       0.01051418
C        1.22994000       6.39125000      13.83007000       0.00325313       0.00720083       0.00154658
C       -0.00009000       8.52171000      13.83006000       0.00276251       0.00137990       0.00207641
C       -1.23011000      10.65218000      13.83006000       0.00346808      -0.00297751       0.00210473
C       -2.46005000      12.78249000      13.83008000       0.00851955      -0.00070105       0.00162000
C        7.37998000       0.00000000      13.83007000       0.00610277       0.00893113      -0.00500836
C        6.14995000       2.13047000      13.83109000      -0.00515602       0.00904354       0.01230481
C        4.92001000       4.26078000      13.83103000       0.00339147      -0.00580458       0.01252199
C        3.68999000       6.39125000      13.83007000       0.01077672       0.00093373      -0.00494472
C        2.45996000       8.52171000      13.83007000       0.00094525       0.00006301       0.00227333
C        1.22994000      10.65218000      13.83006000       0.00039640      -0.00370458       0.00301914
C        0.00000000      12.78249000      13.83005000       0.00038546       0.00159299       0.00241928
C        9.84002000       0.00000000      13.83007000      -0.00000069       0.00077635       0.00197016
C        8.61000000       2.13047000      13.83006000      -0.00496423      -0.00425333      -0.00233026
C        7.38006000       4.26078000      13.83003000      -0.01123353      -0.00125632      -0.00723484
C        6.15004000       6.39125000      13.83006000      -0.00582128      -0.00243828      -0.00231640
C        4.92001000       8.52171000      13.83006000       0.00073807      -0.00034953       0.00206467
C        3.68999000      10.65218000      13.83006000       0.00061618      -0.00435373       0.00217893
C        2.46005000      12.78249000      13.83006000      -0.00066238       0.00157587       0.00217678
C       12.30007000       0.00000000      13.83005000      -0.01047362       0.00934807      -0.00494622
C       11.07005000       2.13047000      13.83004000       0.00038376      -0.00389841      -0.00227732
C        9.84011000       4.26078000      13.83005000      -0.00679369       0.00345232       0.00416172
C        8.61009000       6.39125000      13.83008000      -0.00513462       0.00071555       0.00390581
C        7.38006000       8.52171000      13.83006000      -0.00492510       0.00645183      -0.00244117
C        6.15004000      10.65218000      13.83005000       0.00065972      -0.01324717      -0.00503293
C        4.92010000      12.78249000      13.83008000      -0.00951837      -0.00159181       0.00207445
C       14.75995000       0.00000000      13.84030000       0.01026594      -0.02326922       0.01085283
C       13.52993000       2.13047000      13.83113000       0.00569809       0.00937157       0.01180206
C       12.29999000       4.26078000      13.83004000       0.00661468      -0.00092885      -0.00735943
C       11.06996000       6.39125000      13.83007000       0.00119810       0.00062737       0.00407470
C        9.83994000       8.52171000      13.83004000       0.00040921       0.01031934      -0.00723374
C        8.60991000      10.65218000      13.83102000       0.01243864      -0.00369536       0.01241698
C        7.37998000      12.78249000      13.84024000      -0.01519691       0.02135355       0.01089055
C       -0.00000000       1.42031000      13.87416000      -0.17356831       0.10018669       0.01084886
C       -1.23002000       3.55078000      13.84018000      -0.01311045      -0.02380631       0.01116670
C       -2.45996000       5.68109000      13.83006000       0.00450669       0.01074652      -0.00510840
C       -3.68999000       7.81156000      13.83008000       0.00085954       0.00033421       0.00176941
C       -4.92001000       9.94202000      13.83008000       0.01078896      -0.00163418      -0.00530796
C       -6.14995000      12.07234000      13.84020000      -0.02588669       0.00001536       0.01104447
C       -7.37998000      14.20280000      13.87416000       0.00016647      -0.20037062       0.01063672
C        2.46005000       1.42031000      13.87432000       0.17027858       0.09894516       0.01003401
C        1.23002000       3.55078000      13.84980000      -0.00064293       0.17269114       0.01432846
C        0.00009000       5.68109000      13.83099000       0.00767402      -0.00020406       0.01257595
C       -1.22994000       7.81156000      13.83005000      -0.00393451      -0.00739445      -0.00215410
C       -2.45996000       9.94202000      13.83005000      -0.00896663       0.00042609      -0.00222082
C       -3.68990000      12.07234000      13.83104000       0.00182303       0.01167282       0.01248059
C       -4.91993000      14.20280000      13.84984000       0.15074369      -0.09005950       0.01456854
C        4.91993000       1.42031000      13.84029000      -0.00900045       0.02384418       0.01081244
C        3.68990000       3.55078000      13.84018000       0.01867047      -0.02339807       0.01137063
C        2.45996000       5.68109000      13.83113000      -0.01028473       0.00145512       0.01180793
C        1.22994000       7.81156000      13.83004000       0.00056086      -0.00957953      -0.00727414
C       -0.00009000       9.94202000      13.83007000       0.00033794      -0.00062886       0.00392141
C       -1.23002000      12.07234000      13.83004000      -0.00864769       0.00881026      -0.00741646
C       -2.46005000      14.20280000      13.83114000      -0.00451068      -0.00930551       0.01214021
C        7.37998000       1.42031000      13.83006000       0.00614267      -0.00907025      -0.00509132
C        6.14995000       3.55078000      13.83007000       0.00754370      -0.00083691       0.00134451
C        4.92001000       5.68109000      13.83006000      -0.00453273       0.01069147      -0.00543569
C        3.68999000       7.81156000      13.83008000       0.00050853      -0.00607195      -0.00252692
C        2.45996000       9.94202000      13.83007000       0.00067048      -0.00101668       0.00395914
C        1.23002000      12.07234000      13.83007000      -0.00033180       0.00402522       0.00385522
C        0.00000000      14.20280000      13.83007000      -0.00485202       0.00358537      -0.00249202
C        9.84002000       1.42031000      13.83007000      -0.00029303      -0.00118738       0.00182409
C        8.61000000       3.55078000      13.83006000       0.00233974      -0.00466558       0.00206337
C        7.38006000       5.68109000      13.83006000      -0.00079126       0.00109574       0.00217482
C        6.15004000       7.81156000      13.83006000      -0.00142187       0.00000692       0.00206400
C        4.92001000       9.94202000      13.83006000       0.00508716       0.00143890      -0.00240347
C        3.69007000      12.07234000      13.83003000       0.00770061       0.00808387      -0.00730086
C        2.46005000      14.20280000      13.83006000       0.00414309       0.00332095      -0.00243353
C       12.29990000       1.42031000      13.83004000      -0.00179758      -0.00943045      -0.00489316
C       11.06988000       3.55078000      13.83005000       0.00643170      -0.00478720       0.00211502
C        9.83994000       5.68109000      13.83007000       0.00429884       0.00031657       0.00285759
C        8.60991000       7.81156000      13.83007000       0.00378848      -0.00048353       0.00214349
C        7.37989000       9.94202000      13.83003000      -0.00663383      -0.00204228      -0.00522462
C        6.14995000      12.07234000      13.83113000      -0.00192863       0.01256174       0.01172035
C        4.91993000      14.20280000      13.83114000       0.00945456      -0.01012782       0.01186335
C       14.75995000       1.42031000      13.84029000       0.00996837       0.02350216       0.01087208
C       13.52993000       3.55078000      13.83008000      -0.00242802      -0.00080111       0.00202101
C       12.29999000       5.68109000      13.83007000       0.00041627       0.00143616       0.00206857
C       11.06996000       7.81156000      13.83007000       0.00106799      -0.00006885       0.00211079
C        9.83994000       9.94202000      13.83007000      -0.00000234      -0.00648968       0.00155042
C        8.61000000      12.07234000      13.84017000       0.02478629      -0.00002775       0.01112000
C        7.37998000      14.20280000      13.84980000      -0.15403394      -0.08880331       0.01410831
C        0.00000000       0.00000000      10.12588000      -0.17358391      -0.10023324      -0.01101290
C       -1.23002000       2.13047000      10.15021000      -0.15412632       0.08819266      -0.01416965
C       14.76004000       4.26078000      10.16889000      -0.00836825      -0.00577620      -0.01163404
C       13.53001000       6.39125000      10.16994000       0.00553003      -0.00239336       0.00216306
C       -4.92001000       8.52171000      10.16994000       0.00055364       0.00607955       0.00207772
C       11.06996000      10.65218000      10.16889000      -0.01044729      -0.00395476      -0.01178693
C        9.84002000      12.78249000      10.15026000       0.00017169      -0.17679264      -0.01426817
C        2.46005000       0.00000000      10.12571000       0.17272565      -0.10069166      -0.00998130
C        1.23002000       2.13047000      10.12572000      -0.00048290       0.19926564      -0.00981809
C        0.00009000       4.26078000      10.15989000       0.02186481       0.00677476      -0.01154852
C       -1.22994000       6.39125000      10.16995000      -0.01154824       0.00051946       0.00563431
C       -2.45996000       8.52171000      10.16993000      -0.00156550      -0.00069340      -0.00196709
C       -3.68999000      10.65218000      10.16995000      -0.00462175      -0.01404476       0.00530672
C       -4.91993000      12.78249000      10.15981000       0.01500966       0.02063535      -0.01120145
C        4.91993000       0.00000000      10.15965000      -0.00646831      -0.02229097      -0.01038285
C        3.68990000       2.13047000      10.15021000       0.15728369       0.08941274      -0.01482815
C        2.45996000       4.26078000      10.15973000      -0.02430230       0.00839923      -0.01051417
C        1.22994000       6.39125000      10.16993000       0.00325334       0.00720020      -0.00154660
C       -0.00009000       8.52171000      10.16994000       0.00276264       0.00137944      -0.00207641
C       -1.23011000      10.65218000      10.16994000       0.00346793      -0.00297779      -0.00210474
C       -2.46005000      12.78249000      10.16992000       0.00851937      -0.00070175      -0.00161998
C        7.37998000       0.00000000      10.16993000       0.00610247       0.00893125       0.00500837
C        6.14995000       2.13047000      10.16891000      -0.00515576       0.00904322      -0.01230482
C        4.92001000       4.26078000      10.16897000       0.00339087      -0.00580455      -0.01252200
C        3.68999000       6.39125000      10.16993000       0.01077720       0.00093366       0.00494471
C        2.45996000       8.52171000      10.16993000       0.00094544       0.00006300      -0.00227332
C        1.22994000      10.65218000      10.16994000       0.00039654      -0.00370441      -0.00301916
C        0.00000000      12.78249000      10.16995000       0.00038552       0.00159360      -0.00241928
C        9.84002000       0.00000000      10.16993000      -0.00000009       0.00077658      -0.00197015
C        8.61000000       2.13047000      10.16994000      -0.00496461      -0.00425352       0.00233029
C        7.38006000       4.26078000      10.16997000      -0.01123428      -0.00125663       0.00723482
C        6.15004000       6.39125000      10.16994000      -0.00582135      -0.00243837       0.00231642
C        4.92001000       8.52171000      10.16994000       0.00073756      -0.00034942      -0.00206465
C        3.68999000      10.65218000      10.16994000       0.00061652      -0.00435376      -0.00217892
C        2.46005000      12.78249000      10.16994000      -0.00066247       0.00157565      -0.00217679
C       12.30007000       0.00000000      10.16995000      -0.01047363       0.00934789       0.00494622
C       11.07005000       2.13047000      10.16996000       0.00038392      -0.00389822       0.00227730
C        9.84011000       4.26078000      10.16995000      -0.00679367       0.00345305      -0.00416176
C        8.61009000       6.39125000      10.16992000      -0.00513405       0.00071518      -0.00390579
C        7.38006000       8.52171000      10.16994000      -0.00492510       0.00645156       0.00244116
C        6.15004000      10.65218000      10.16995000       0.00065984      -0.01324786       0.00503290
C        4.92010000      12.78249000      10.16992000      -0.00951839      -0.00159198      -0.00207444
C       14.75995000       0.00000000      10.15970000       0.01026571      -0.02326953      -0.01085286
C       13.52993000       2.13047000      10.16887000       0.00569817       0.00937272      -0.01180207
C       12.29999000       4.26078000      10.16996000       0.00661467      -0.00092951       0.00735944
C       11.06996000       6.39125000      10.16993000       0.00119895       0.00062733      -0.00407468
C        9.83994000       8.52171000      10.16996000       0.00040851       0.01031955       0.00723370
C        8.60991000      10.65218000      10.16898000       0.01243770      -0.00369620      -0.01241697
C        7.37998000      12.78249000      10.15976000      -0.01519645       0.02135293      -0.01089058
C       -0.00000000       1.42031000      10.12584000      -0.17356743       0.10018626      -0.01084891
C       -1.23002000       3.55078000      10.15982000      -0.01310978      -0.02380626      -0.01116675
C       -2.45996000       5.68109000      10.16994000       0.00450646       0.01074735       0.00510839
C       -3.68999000       7.81156000      10.16992000       0.00085993       0.00033449      -0.00176941
C       -4.92001000       9.94202000      10.16992000       0.01078862      -0.00163447       0.00530798
C       -6.14995000      12.07234000      10.15980000      -0.02588709       0.00001593      -0.01104448
C       -7.37998000      14.20280000      10.12584000       0.00016743      -0.20036952      -0.01063670
C        2.46005000       1.42031000      10.12568000       0.17027804       0.09894542      -0.01003402
C        1.23002000       3.55078000      10.15020000      -0.00064273       0.17269188      -0.01432843
C        0.00009000       5.68109000      10.16901000       0.00767423      -0.00020436      -0.01257594
C       -1.22994000       7.81156000      10.16995000      -0.00393446      -0.00739384       0.00215410
C       -2.45996000       9.94202000      10.16995000      -0.00896694       0.00042583       0.00222083
C       -3.68990000      12.07234000      10.16896000       0.00182350       0.01167322      -0.01248059
C       -4.91993000      14.20280000      10.15016000       0.15074416      -0.09005933      -0.01456848
C        4.91993000       1.42031000      10.15971000      -0.00900037       0.02384346      -0.01081241
C        3.68990000       3.55078000      10.15982000       0.01867092      -0.02339810      -0.01137060
C        2.45996000       5.68109000      10.16887000      -0.01028462       0.00145406      -0.01180792
C        1.22994000       7.81156000      10.16996000       0.00056123      -0.00957931       0.00727413
C       -0.00009000       9.94202000      10.16993000       0.00033805      -0.00062819      -0.00392142
C       -1.23002000      12.07234000      10.16996000      -0.00864807       0.00881051       0.00741647
C       -2.46005000      14.20280000      10.16886000      -0.00451100      -0.00930529      -0.01214025
C        7.37998000       1.42031000      10.16994000       0.00614279      -0.00906997       0.00509132
C        6.14995000       3.55078000      10.16993000       0.00754459      -0.00083656      -0.00134449
C        4.92001000       5.68109000      10.16994000      -0.00453215       0.01069187       0.00543569
C        3.68999000       7.81156000      10.16992000       0.00050821      -0.00607109       0.00252692
C        2.45996000       9.94202000      10.16993000       0.00066973      -0.00101712      -0.00395912
C        1.23002000      12.07234000      10.16993000      -0.00033229       0.00402498      -0.00385525
C        0.00000000      14.20280000      10.16993000      -0.00485197       0.00358491       0.00249201
C        9.84002000       1.42031000      10.16993000      -0.00029327      -0.00118768      -0.00182408
C        8.61000000       3.55078000      10.16994000       0.00233920      -0.00466548      -0.00206336
C        7.38006000       5.68109000      10.16994000      -0.00079221       0.00109594      -0.00217484
C        6.15004000       7.81156000      10.16994000      -0.00142150       0.00000610      -0.00206399
C        4.92001000       9.94202000      10.16994000       0.00508777       0.00143901       0.00240347
C        3.69007000      12.07234000      10.16997000       0.00770092       0.00808397       0.00730087
C        2.46005000      14.20280000      10.16994000       0.00414358       0.00332123       0.00243351
C       12.29990000       1.42031000      10.16996000      -0.00179722      -0.00943010       0.00489317
C       11.06988000       3.55078000      10.16995000       0.00643189      -0.00478765      -0.00211500
C        9.83994000       5.68109000      10.16993000       0.00429844       0.00031591      -0.00285759
C        8.60991000       7.81156000      10.16993000       0.00378945      -0.00048326      -0.00214349
C        7.37989000       9.94202000      10.16997000      -0.00663408      -0.00204105       0.00522463
C        6.14995000      12.07234000      10.16887000      -0.00192903       0.01256218      -0.01172033
C        4.91993000      14.20280000      10.16886000       0.00945455      -0.01012894      -0.01186334
C       14.75995000       1.42031000      10.15971000       0.00996813       0.02350216      -0.01087206
C       13.52993000       3.55078000      10.16992000      -0.00242886      -0.00080130      -0.00202104
C       12.29999000       5.68109000      10.16993000       0.00041608       0.00143658      -0.00206856
C       11.06996000       7.81156000      10.16993000       0.00106750      -0.00006872      -0.00211080
C        9.83994000       9.94202000      10.16993000      -0.00000178      -0.00649005      -0.00155039
C        8.61000000      12.07234000      10.15983000       0.02478643      -0.00002728      -0.01112004
C        7.37998000      14.20280000      10.15020000      -0.15403433      -0.08880273      -0.01410826
Li       1.23001000       0.71017000      12.00000000       0.00014406       0.00004668       0.00000005
197
Lattice="17.219999313 0.0 0.0 -8.609999657 14.912956858 0.0 0.0 0.0 24.0" Properties=species:S:1:pos:R:3:forces:R:3 energy=-1823.2095947265625 stress="-0.06840826570987701 2.5058370738406666e-06 1.0746124823324266e-10 2.5058370738406666e-06 -0.06840544939041138 -9.002691370163518e-10 1.0746124823324266e-10 -9.002691370163518e-10 -0.00022064127551857382" free_energy=-1823.2095947265625 pbc="T T T"
C        0.00000000       0.00000000      13.87427733      -0.17350844      -0.10019094       0.01104547
C       -1.23002000       2.13047000      13.84999242      -0.15414464       0.08819714       0.01367474
C       14.76004000       4.26078000      13.83127620      -0.00837381      -0.00576632       0.01007175
C       13.53001000       6.39125000      13.83002910       0.00552483      -0.00238898      -0.00200119
C       -4.92001000       8.52171000      13.83003032       0.00055465       0.00607436      -0.00194802
C       11.06996000      10.65218000      13.83127838      -0.01044594      -0.00396272       0.01012724
C        9.84002000      12.78249000      13.84994383       0.00016695      -0.17681074       0.01375351
C        2.46005000       0.00000000      13.87443259       0.17264587      -0.10064641       0.01016580
C        1.23002000       2.13047000      13.87442026      -0.00048313       0.19917154       0.01002875
C        0.00009000       4.26078000      13.84027498       0.02186851       0.00677978       0.01215857
C       -1.22994000       6.39125000      13.82996951      -0.01153607       0.00051037      -0.00456710
C       -2.45996000       8.52171000      13.83009810      -0.00156489      -0.00069290       0.00137489
C       -3.68999000      10.65218000      13.82997419      -0.00462543      -0.01402860      -0.00433361
C       -4.91993000      12.78249000      13.84035002       0.01501864       0.02063450       0.01186591
C        4.91993000       0.00000000      13.84049833      -0.00647185      -0.02229688       0.01113363
C        3.68990000       2.13047000      13.85000183       0.15731129       0.08942541       0.01417122
C        2.45996000       4.26078000      13.84042020      -0.02430581       0.00840247       0.01123600
C        1.22994000       6.39125000      13.83009209       0.00325065       0.00719306       0.00246797
C       -0.00009000       8.52171000      13.83008966       0.00276369       0.00137975       0.00129203
C       -1.23011000      10.65218000      13.83009007       0.00346866      -0.00297729       0.00128496
C       -2.46005000      12.78249000      13.83010314       0.00851452      -0.00069927       0.00255186
C        7.37998000       0.00000000      13.82999845       0.00608883       0.00892646      -0.00410969
C        6.14995000       2.13047000      13.83126578      -0.00514311       0.00904619       0.01055571
C        4.92001000       4.26078000      13.83120889       0.00339837      -0.00579855       0.01073691
C        3.68999000       6.39125000      13.82999936       0.01076270       0.00092280      -0.00411448
C        2.45996000       8.52171000      13.83010248       0.00094438       0.00006346       0.00139986
C        1.22994000      10.65218000      13.83010313       0.00039602      -0.00370453       0.00321404
C        0.00000000      12.78249000      13.83008456       0.00038535       0.00159289       0.00152023
C        9.84002000       0.00000000      13.83009815       0.00000015       0.00077616       0.00135967
C        8.61000000       2.13047000      13.83002671      -0.00495844      -0.00425151      -0.00213120
C        7.38006000       4.26078000      13.82992665      -0.01123077      -0.00125433      -0.00593994
C        6.15004000       6.39125000      13.83002691      -0.00581614      -0.00243471      -0.00211429
C        4.92001000       8.52171000      13.83008950       0.00073732      -0.00034945       0.00145214
C        3.68999000      10.65218000      13.83009113       0.00061644      -0.00435338       0.00133433
C        2.46005000      12.78249000      13.83009110      -0.00066173       0.00157515       0.00132283
C       12.30007000       0.00000000      13.82997934      -0.01045871       0.00934343      -0.00404778
C       11.07005000       2.13047000      13.83000747       0.00038076      -0.00389763      -0.00206246
C        9.84011000       4.26078000      13.83010945      -0.00679388       0.00345162       0.00414151
C        8.61009000       6.39125000      13.83013580      -0.00513479       0.00071528       0.00396138
C        7.38006000       8.52171000      13.83002513      -0.00492640       0.00644773      -0.00219961
C        6.15004000      10.65218000      13.82997810       0.00066324      -0.01323178      -0.00416508
C        4.92010000      12.78249000      13.83010963      -0.00951095      -0.00158862       0.00284111
C       14.75995000       0.00000000      13.84045504       0.01026164      -0.02327225       0.01145459
C       13.52993000       2.13047000      13.83129860       0.00568729       0.00937135       0.01020962
C       12.29999000       4.26078000      13.82993487       0.00661201      -0.00092787      -0.00600519
C       11.06996000       6.39125000      13.83012821       0.00119882       0.00062722       0.00405478
C        9.83994000       8.52171000      13.82993666       0.00040789       0.01031715      -0.00592674
C        8.60991000      10.65218000      13.83119739       0.01243162      -0.00370580       0.01067359
C        7.37998000      12.78249000      13.84039558      -0.01520202       0.02135425       0.01148628
C        0.00000000       1.42031000      13.87431498      -0.17349017       0.10014147       0.01086062
C       -1.23002000       3.55078000      13.84033952      -0.01311691      -0.02380522       0.01175240
C       -2.45996000       5.68109000      13.82998702       0.00450860       0.01073108      -0.00425067
C       -3.68999000       7.81156000      13.83010528       0.00086010       0.00033379       0.00127306
C       -4.92001000       9.94202000      13.83000417       0.01077647      -0.00162316      -0.00436584
C       -6.14995000      12.07234000      13.84035778      -0.02588700       0.00000757       0.01165689
C       -7.37998000      14.20280000      13.87431195       0.00016626      -0.20028363       0.01068781
C        2.46005000       1.42031000      13.87446334       0.17019546       0.09889987       0.01014680
C        1.23002000       3.55078000      13.85000469      -0.00064008       0.17271927       0.01372483
C        0.00009000       5.68109000      13.83116966       0.00767143      -0.00019212       0.01078799
C       -1.22994000       7.81156000      13.83001923      -0.00393603      -0.00738876      -0.00201260
C       -2.45996000       9.94202000      13.83001827      -0.00896311       0.00042182      -0.00202929
C       -3.68990000      12.07234000      13.83121829       0.00182977       0.01166426       0.01071448
C       -4.91993000      14.20280000      13.85004812       0.15076998      -0.09007221       0.01390878
C        4.91993000       1.42031000      13.84044446      -0.00899924       0.02384820       0.01149122
C        3.68990000       3.55078000      13.84034244       0.01867583      -0.02339561       0.01199596
C        2.45996000       5.68109000      13.83129868      -0.01027633       0.00146552       0.01014776
C        1.22994000       7.81156000      13.82993608       0.00056069      -0.00957416      -0.00595056
C       -0.00009000       9.94202000      13.83012602       0.00033786      -0.00062929       0.00396216
C       -1.23002000      12.07234000      13.82993405      -0.00864580       0.00880943      -0.00605350
C       -2.46005000      14.20280000      13.83131343      -0.00449838      -0.00930829       0.01040043
C        7.37998000       1.42031000      13.82998727       0.00612552      -0.00906279      -0.00415956
C        6.14995000       3.55078000      13.83008921       0.00753939      -0.00083807       0.00234100
C        4.92001000       5.68109000      13.82998235      -0.00453598       0.01067615      -0.00441769
C        3.68999000       7.81156000      13.83004390       0.00050950      -0.00606665      -0.00223193
C        2.45996000       9.94202000      13.83012656       0.00067083      -0.00101809       0.00400762
C        1.23002000      12.07234000      13.83012507      -0.00033264       0.00402604       0.00393257
C        0.00000000      14.20280000      13.83003440      -0.00484822       0.00358227      -0.00221540
C        9.84002000       1.42031000      13.83009606      -0.00029304      -0.00118727       0.00127125
C        8.61000000       3.55078000      13.83008948       0.00233986      -0.00466459       0.00127223
C        7.38006000       5.68109000      13.83009107      -0.00079187       0.00109556       0.00134088
C        6.15004000       7.81156000      13.83008949      -0.00142385       0.00000478       0.00146232