197
Lattice="17.219999313 0.0 0.0 -8.609999657 14.912956858 0.0 0.0 0.0 24.0" Properties=species:S:1:pos:R:3:forces:R:3 energy=-1821.9296947258033 stress="-0.06543805874618074 3.285132552606312e-06 -4.767008657884023e-09 3.285132552606312e-06 -0.06543445145677033 -6.41369471485105e-09 -4.767008657884023e-09 -6.41369471485105e-09 -0.003290881409881583" free_energy=-1821.9296947258033 pbc="T T T"
C        0.00000000       0.00000000      13.67500000       0.00011203      -0.31713239       0.18882217
C       -1.23002000       2.13047000      13.67500000      -0.27454714       0.15734474       0.18878186
C       14.76004000       4.26078000      13.67500000      -0.00229544      -0.01567677       0.03276073
C       13.53001000       6.39125000      13.67500000       0.00044568      -0.00054731       0.03644951
C       -4.92001000       8.52171000      13.67500000      -0.00069271       0.00004178       0.03748184
C       11.06996000      10.65218000      13.67500000       0.00040807      -0.00466637       0.03642544
C        9.84002000      12.78249000      13.67500000      -0.01671868       0.01209173       0.03275514
C        2.46005000       0.00000000      13.67500000       0.06024308      -0.03632754       0.06129583
C        1.23002000       2.13047000      13.67500000       0.27381735       0.15657505       0.18876124
C        0.00009000       4.26078000      13.67500000      -0.00431101       0.07491303       0.06127274
C       -1.22994000       6.39125000      13.67500000      -0.01918302       0.00092343       0.03656747
C       -2.45996000       8.52171000      13.67500000      -0.00196475      -0.00105437       0.03731272
C       -3.68999000      10.65218000      13.67500000      -0.00161672      -0.00590264       0.03729828
C       -4.91993000      12.78249000      13.67500000      -0.00820410      -0.01627711       0.03655262
C        4.91993000       0.00000000      13.67500000       0.01494190       0.01690823       0.03655492
C        3.68990000       2.13047000      13.67500000      -0.01335475       0.01029871       0.03275092
C        2.45996000       4.26078000      13.67500000       0.00051656      -0.01362398       0.03274680
C        1.22994000       6.39125000      13.67500000       0.02271060       0.00382434       0.03655718
C       -0.00009000       8.52171000      13.67500000       0.00451938       0.00510098       0.03734271
C       -1.23011000      10.65218000      13.67500000       0.00454101      -0.00270635       0.03752990
C       -2.46005000      12.78249000      13.67500000       0.00671603       0.00215160       0.03733788
C        7.37998000       0.00000000      13.67500000      -0.00068834       0.00078201       0.03732335
C        6.14995000       2.13047000      13.67500000      -0.00009485      -0.00141580       0.03642793
C        4.92001000       4.26078000      13.67500000      -0.02140282      -0.00623202       0.03712074
C        3.68999000       6.39125000      13.67500000      -0.00032391      -0.00081012       0.03644488
C        2.45996000       8.52171000      13.67500000       0.00092048      -0.00060388       0.03731751
C        1.22994000      10.65218000      13.67500000      -0.00013124      -0.00509251       0.03754578
C        0.00000000      12.78249000      13.67500000      -0.00008019       0.00115395       0.03755464
C        9.84002000       0.00000000      13.67500000       0.00074260       0.00099269       0.03733103
C        8.61000000       2.13047000      13.67500000       0.00031854      -0.00031947       0.03747668
C        7.38006000       4.26078000      13.67500000      -0.00233263       0.00361181       0.03756429
C        6.15004000       6.39125000      13.67500000      -0.00033197       0.00052855       0.03758891
C        4.92001000       8.52171000      13.67500000       0.00121084      -0.00001052       0.03748495
C        3.68999000      10.65218000      13.67500000       0.00139572      -0.00520121       0.03731088
C        2.46005000      12.78249000      13.67500000      -0.00215428       0.00009438       0.03736087
C       12.30007000       0.00000000      13.67500000      -0.01594463       0.01539410       0.03655504
C       11.07005000       2.13047000      13.67500000      -0.00499795      -0.00066189       0.03641314
C        9.84011000       4.26078000      13.67500000      -0.00878086       0.00412297       0.03754177
C        8.61009000       6.39125000      13.67500000      -0.00538488       0.00020831       0.03756658
C        7.38006000       8.52171000      13.67500000      -0.00606886       0.00094224       0.03755624
C        6.15004000      10.65218000      13.67500000      -0.00497735      -0.00415591       0.03640581
C        4.92010000      12.78249000      13.67500000       0.00220478      -0.01503660       0.03654281
C       14.75995000       0.00000000      13.67500000      -0.06030432      -0.03520348       0.06130071
C       13.52993000       2.13047000      13.67500000       0.01863998       0.00870567       0.03274087
C       12.29999000       4.26078000      13.67500000       0.01606492      -0.00560615       0.03711220
C       11.06996000       6.39125000      13.67500000       0.00178321       0.00093423       0.03757231
C        9.83994000       8.52171000      13.67500000       0.00185141       0.00082129       0.03756314
C        8.60991000      10.65218000      13.67500000       0.00151839       0.01643701       0.03711091
C        7.37998000      12.78249000      13.67500000       0.01792738       0.01251444       0.03274164
C       -0.00000000       1.42031000      13.67500000       0.00006634       0.00041331       3.83153189
C       -1.23002000       3.55078000      13.67500000      -0.01998280       0.15056140       0.04861311
C       -2.45996000       5.68109000      13.67500000       0.00734523       0.02412670       0.02875423
C       -3.68999000       7.81156000      13.67500000       0.00106252      -0.00018962       0.03230897
C       -4.92001000       9.94202000      13.67500000      -0.00004045      -0.00007017       0.03230834
C       -6.14995000      12.07234000      13.67500000       0.02305306      -0.00012242       0.02875871
C       -7.37998000      14.20280000      13.67500000       0.12281993      -0.09733209       0.04860003
C        2.46005000       1.42031000      13.67500000       0.14123118      -0.05906063       0.04859147
C        1.23002000       3.55078000      13.67500000       0.02231754       0.14812478       0.04861023
C        0.00009000       5.68109000      13.67500000      -0.00452940      -0.01419537       0.02226726
C       -1.22994000       7.81156000      13.67500000      -0.00610149      -0.00497957       0.03241571
C       -2.45996000       9.94202000      13.67500000      -0.00476692      -0.00331487       0.03258601
C       -3.68990000      12.07234000      13.67500000      -0.00801199       0.00220493       0.03240626
C       -4.91993000      14.20280000      13.67500000      -0.01568093       0.00448673       0.02227533
C        4.91993000       1.42031000      13.67500000       0.01664601      -0.01678765       0.02876204
C        3.68990000       3.55078000      13.67500000       0.02565165       0.00872830       0.02915079
C        2.45996000       5.68109000      13.67500000      -0.00630420       0.02458038       0.02875638
C        1.22994000       7.81156000      13.67500000       0.00273399      -0.00206454       0.03242404
C       -0.00009000       9.94202000      13.67500000       0.00117479      -0.00032001       0.03265515
C       -1.23002000      12.07234000      13.67500000       0.00055835       0.00523667       0.03264558
C       -2.46005000      14.20280000      13.67500000      -0.00030702       0.00358255       0.03241993
C        7.37998000       1.42031000      13.67500000      -0.00109916      -0.00018009       0.03231189
C        6.14995000       3.55078000      13.67500000       0.00891993      -0.00865503       0.03194247
C        4.92001000       5.68109000      13.67500000      -0.00064506       0.00841695       0.03194583
C        3.68999000       7.81156000      13.67500000      -0.00102832      -0.00045305       0.03231330
C        2.45996000       9.94202000      13.67500000       0.00028006      -0.00125873       0.03259586
C        1.23002000      12.07234000      13.67500000      -0.00023005       0.00446389       0.03264717
C        0.00000000      14.20280000      13.67500000      -0.00018365       0.00006581       0.03259314
C        9.84002000       1.42031000      13.67500000      -0.00014968      -0.00056069       0.03230702
C        8.61000000       3.55078000      13.67500000       0.00212495      -0.00559395       0.03258742
C        7.38006000       5.68109000      13.67500000      -0.00049645       0.00101019       0.03262211
C        6.15004000       7.81156000      13.67500000      -0.00188462      -0.00009888       0.03259556
C        4.92001000       9.94202000      13.67500000      -0.00090910      -0.00067683       0.03230738
C        3.69007000      12.07234000      13.67500000       0.00230617       0.00385485       0.03241108
C        2.46005000      14.20280000      13.67500000       0.00019608       0.00246765       0.03241626
C       12.29990000       1.42031000      13.67500000      -0.01067021      -0.01802201       0.02876219
C       11.06988000       3.55078000      13.67500000       0.00228306      -0.00916103       0.03193399
C        9.83994000       5.68109000      13.67500000       0.00468574       0.00083795       0.03261902
C        8.60991000       7.81156000      13.67500000       0.00545572      -0.00107241       0.03262320
C        7.37989000       9.94202000      13.67500000      -0.00146791      -0.00470762       0.03194116
C        6.14995000      12.07234000      13.67500000      -0.01828281      -0.00089488       0.02875574
C        4.91993000      14.20280000      13.67500000       0.01651518       0.00600086       0.02227550
C       14.75995000       1.42031000      13.67500000      -0.14573575      -0.05709405       0.04859376
C       13.52993000       3.55078000      13.67500000      -0.01876712       0.00799484       0.02915313
C       12.29999000       5.68109000      13.67500000       0.00011145       0.00846329       0.03194404
C       11.06996000       7.81156000      13.67500000       0.00060961       0.00028982       0.03259880
C        9.83994000       9.94202000      13.67500000       0.00607603      -0.00411918       0.03194710
C        8.61000000      12.07234000      13.67500000      -0.00053701      -0.02050068       0.02915703
C        7.37998000      14.20280000      13.67500000      -0.12306600      -0.09755544       0.04859851
C        0.00000000       0.00000000      10.32500000      -0.00029627      -0.30598719      -0.22557052
C       -1.23002000       2.13047000      10.32500000      -0.26572082       0.15160796      -0.22551561
C       14.76004000       4.26078000      10.32500000      -0.01926318      -0.01675312      -0.04102142
C       13.53001000       6.39125000      10.32500000       0.00435392       0.01144112      -0.03596253
C       -4.92001000       8.52171000      10.32500000       0.00120160       0.00121889      -0.03747141
C       11.06996000      10.65218000      10.32500000       0.01543541      -0.00663270      -0.03594756
C        9.84002000      12.78249000      10.32500000      -0.02796518      -0.00422361      -0.04101658
C        2.46005000       0.00000000      10.32500000       0.17014824      -0.09902281      -0.00784364
C        1.23002000       2.13047000      10.32500000       0.26450137       0.15121295      -0.22547555
C        0.00009000       4.26078000      10.32500000      -0.00148822       0.20211289      -0.00785058
C       -1.22994000       6.39125000      10.32500000       0.00792091      -0.00490881      -0.03557163
C       -2.45996000       8.52171000      10.32500000      -0.00238679      -0.00169992      -0.03746700
C       -3.68999000      10.65218000      10.32500000       0.00015587      -0.00498782      -0.03744323
C       -4.91993000      12.78249000      10.32500000       0.00001213       0.01040137      -0.03556140
C        4.91993000       0.00000000      10.32500000      -0.00297835      -0.00579233      -0.03557283
C        3.68990000       2.13047000      10.32500000      -0.00410055       0.02496621      -0.04100450
C        2.45996000       4.26078000      10.32500000       0.02374947      -0.01719598      -0.04100067
C        1.22994000       6.39125000      10.32500000      -0.00372061      -0.00504849      -0.03556561
C       -0.00009000       8.52171000      10.32500000       0.00538546      -0.00209995      -0.03769958
C       -1.23011000      10.65218000      10.32500000       0.00806785      -0.00507978      -0.03753725
C       -2.46005000      12.78249000      10.32500000       0.00361672       0.00161782      -0.03768296
C        7.37998000       0.00000000      10.32500000      -0.00133735       0.00204215      -0.03748045
C        6.14995000       2.13047000      10.32500000       0.00801480      -0.01116471      -0.03596092
C        4.92001000       4.26078000      10.32500000       0.00542432       0.00819281      -0.03575424
C        3.68999000       6.39125000      10.32500000      -0.00487417       0.01150296      -0.03596559
C        2.45996000       8.52171000      10.32500000       0.00093482      -0.00129421      -0.03748369
C        1.22994000      10.65218000      10.32500000       0.00304809      -0.00456783      -0.03755990
C        0.00000000      12.78249000      10.32500000      -0.00031872       0.00133678      -0.03756661
C        9.84002000       0.00000000      10.32500000       0.00125691       0.00225232      -0.03747275
C        8.61000000       2.13047000      10.32500000       0.00008007      -0.00304262      -0.03745253
C        7.38006000       4.26078000      10.32500000       0.00100316       0.00537697      -0.03743816
C        6.15004000       6.39125000      10.32500000       0.00056952       0.00045734      -0.03745258
C        4.92001000       8.52171000      10.32500000      -0.00132320       0.00148361      -0.03746659
C        3.68999000      10.65218000      10.32500000       0.00517419      -0.00437097      -0.03745197
C        2.46005000      12.78249000      10.32500000       0.00148920       0.00237193      -0.03769829
C       12.30007000       0.00000000      10.32500000       0.00395162      -0.00729682      -0.03557107
C       11.07005000       2.13047000      10.32500000      -0.01255188      -0.01322144      -0.03593786
C        9.84011000       4.26078000      10.32500000      -0.00541339       0.00299020      -0.03742225
C        8.61009000       6.39125000      10.32500000      -0.00451957      -0.00249535      -0.03755618
C        7.38006000       8.52171000      10.32500000      -0.00449019      -0.00272436      -0.03744535
C        6.15004000      10.65218000      10.32500000      -0.01362731      -0.00868442      -0.03592741
C        4.92010000      12.78249000      10.32500000      -0.00531045       0.00878519      -0.03555693
C       14.75995000       0.00000000      10.32500000      -0.17027731      -0.09795502      -0.00785228
C       13.52993000       2.13047000      10.32500000       0.01008290       0.02614957      -0.04100768
C       12.29999000       4.26078000      10.32500000      -0.00518793       0.00889100      -0.03574114
C       11.06996000       6.39125000      10.32500000       0.00047562       0.00090813      -0.03744788
C        9.83994000       8.52171000      10.32500000       0.00094675       0.00019070      -0.03745625
C        8.60991000      10.65218000      10.32500000       0.00432282      -0.01047371      -0.03573980
C        7.37998000      12.78249000      10.32500000       0.02864891      -0.00344240      -0.04100520
C        1.23002000       0.71016000      10.32500000       0.25951011      -0.14947976      -0.21238507
C        0.00000000       2.84062000      10.32500000       0.00050372       0.29498278      -0.21238426
C       -1.22994000       4.97094000      10.32500000       0.02867158       0.00637603      -0.03735562
C       -2.45996000       7.10140000      10.32500000      -0.01238148       0.00224175      -0.03128338
C       -3.68999000       9.23187000      10.32500000      -0.00104725      -0.00214261      -0.03251998
C       -4.91993000      11.36218000      10.32500000      -0.00719852      -0.00736717      -0.03127679
C       -6.14995000      13.49265000      10.32500000       0.01881396       0.02134273      -0.03736270
C        3.69007000       0.71016000      10.32500000      -0.01429533      -0.02640388      -0.03735560
C        2.46005000       2.84062000      10.32500000       0.16655633       0.09510868      -0.00535368
C        1.23011000       4.97094000      10.32500000      -0.03320093       0.00695749      -0.03735284
C        0.00009000       7.10140000      10.32500000      -0.00545177       0.00710896      -0.03089931
C       -1.22994000       9.23187000      10.32500000      -0.00528810       0.00030333      -0.03254151
C       -2.45988000      11.36218000      10.32500000      -0.00753896       0.00436160      -0.03253716
C       -3.68990000      13.49265000      10.32500000       0.00034886      -0.00308203      -0.03089857
C        6.14995000       0.71016000      10.32500000       0.00930387       0.01020564      -0.03127599
C        4.91993000       2.84062000      10.32500000      -0.00697544       0.00131752      -0.03094043
C        3.68999000       4.97094000      10.32500000       0.00155422      -0.00818462      -0.03094709
C        2.45996000       7.10140000      10.32500000       0.01365747       0.00261971      -0.03127955
C        1.22994000       9.23187000      10.32500000       0.00109759       0.00013031      -0.03254459
C       -0.00000000      11.36218000      10.32500000      -0.00212471       0.00483495      -0.03264193
C       -1.23002000      13.49265000      10.32500000       0.00172420      -0.00023006      -0.03254756
C        8.61000000       0.71016000      10.32500000       0.00019639       0.00198724      -0.03252297
C        7.37998000       2.84062000      10.32500000      -0.00076510      -0.00626379      -0.03247808
C        6.15004000       4.97094000      10.32500000      -0.00171480       0.00011764      -0.03278209
C        4.92001000       7.10140000      10.32500000      -0.00165083       0.00020480      -0.03248827
C        3.68999000       9.23187000      10.32500000       0.00157997      -0.00209328      -0.03252203
C        2.46005000      11.36218000      10.32500000      -0.00365858       0.00385177      -0.03254575
C        1.23002000      13.49265000      10.32500000      -0.00047260      -0.00061142      -0.03255252
C       11.07005000       0.71016000      10.32500000      -0.00917458       0.00909387      -0.03127986
C        9.84002000       2.84062000      10.32500000       0.00043455      -0.00703535      -0.03247662
C        8.61009000       4.97094000      10.32500000      -0.00117501       0.00021526      -0.03264487
C        7.38006000       7.10140000      10.32500000      -0.00100704      -0.00057698      -0.03264572
C        6.15004000       9.23187000      10.32500000      -0.00221486      -0.00024827      -0.03248224
C        4.92010000      11.36218000      10.32500000       0.00027933      -0.00807171      -0.03127586
C        3.69007000      13.49265000      10.32500000      -0.00632921      -0.00431817      -0.03090341
C       13.52993000       0.71016000      10.32500000       0.01342326      -0.02488425      -0.03735630
C       12.29990000       2.84062000      10.32500000       0.01268099       0.00295879      -0.03094058
C       11.06996000       4.97094000      10.32500000       0.00620156       0.00217695      -0.03277244
C        9.83994000       7.10140000      10.32500000       0.00437427       0.00233929      -0.03263712
C        8.60991000       9.23187000      10.32500000       0.00453165       0.00277360      -0.03276837
C        7.37998000      11.36218000      10.32500000       0.00958358       0.01087255      -0.03094188
C        6.14995000      13.49265000      10.32500000      -0.01425180       0.02330691      -0.03735604
C       15.98997000       0.71016000      10.32500000      -0.25882330      -0.14967860      -0.21237591
C       14.75995000       2.84062000      10.32500000      -0.17133850       0.09445142      -0.00534941
C       13.53001000       4.97094000      10.32500000      -0.00059630      -0.00879324      -0.03094820
C       12.29999000       7.10140000      10.32500000       0.00161476      -0.00005830      -0.03248387
C       11.06996000       9.23187000      10.32500000       0.00117683       0.00020616      -0.03247942
C        9.84002000      11.36218000      10.32500000      -0.01189336       0.00849445      -0.03094537
C        8.61000000      13.49265000      10.32500000      -0.00008045      -0.19876354      -0.00535704
Li      -0.00000000       1.42031000      12.00000000      -0.00000049      -0.00002286      -3.37362514
197
Lattice="17.219999313 0.0 0.0 -8.609999657 14.912956858 0.0 0.0 0.0 24.0" Properties=species:S:1:pos:R:3:forces:R:3 energy=-1822.213871589464 stress="-0.06545125453217379 3.2862600158207454e-06 -2.366751598043603e-09 3.2862600158207454e-06 -0.06544764367841839 -1.2734279893116823e-08 -2.366751598043603e-09 -1.2734279893116823e-08 -0.0029729868006842233" free_energy=-1822.213871589464 pbc="T T T"
C        0.00000000       0.00000000      13.67769746       0.00010933      -0.30463799       0.43678003
C       -1.23002000       2.13047000      13.67769688      -0.26372926       0.15109825       0.43675950
C       14.76004000       4.26078000      13.67546801      -0.00621815      -0.01515856       0.01011355
C       13.53001000       6.39125000      13.67552071      -0.00075729      -0.00019648       0.03453578
C       -4.92001000       8.52171000      13.67553545      -0.00071439       0.00002929       0.03631341
C       11.06996000      10.65218000      13.67552036       0.00011037      -0.00588167       0.03451760
C        9.84002000      12.78249000      13.67546793      -0.01822694       0.00843419       0.01011185
C        2.46005000       0.00000000      13.67587565       0.05591557      -0.03382586       0.07758827
C        1.23002000       2.13047000      13.67769659       0.26300039       0.15032918       0.43675600
C        0.00009000       4.26078000      13.67587532      -0.00430794       0.06989933       0.07758401
C       -1.22994000       6.39125000      13.67552239      -0.01766547       0.00309153       0.03296375
C       -2.45996000       8.52171000      13.67553304      -0.00189777      -0.00083122       0.03619577
C       -3.68999000      10.65218000      13.67553283      -0.00138974      -0.00595610       0.03618350
C       -4.91993000      12.78249000      13.67552218      -0.00556885      -0.01604802       0.03295432
C        4.91993000       0.00000000      13.67552221       0.01605881       0.01450851       0.03295664
C        3.68990000       2.13047000      13.67546787      -0.01094316       0.01343774       0.01010445
C        2.45996000       4.26078000      13.67546781       0.00443461      -0.01310823       0.01010233
C        1.22994000       6.39125000      13.67552225       0.02118993       0.00599085       0.03295640
C       -0.00009000       8.52171000      13.67553347       0.00451925       0.00495052       0.03618687
C       -1.23011000      10.65218000      13.67553614       0.00453421      -0.00271013       0.03636784
C       -2.46005000      12.78249000      13.67553340       0.00658557       0.00222672       0.03618118
C        7.37998000       0.00000000      13.67553319      -0.00052857       0.00061238       0.03620546
C        6.14995000       2.13047000      13.67552040       0.00081033      -0.00054925       0.03451906
C        4.92001000       4.26078000      13.67553030      -0.01919142      -0.00495589       0.03542173
C        3.68999000       6.39125000      13.67552064       0.00087946      -0.00045931       0.03453245
C        2.45996000       8.52171000      13.67553311       0.00085354      -0.00038064       0.03620133
C        1.22994000      10.65218000      13.67553637      -0.00012450      -0.00509610       0.03638140
C        0.00000000      12.78249000      13.67553649      -0.00008014       0.00116166       0.03638751
C        9.84002000       0.00000000      13.67553330       0.00058262       0.00082292       0.03621103
C        8.61000000       2.13047000      13.67553538       0.00031850      -0.00029442       0.03630849
C        7.38006000       4.26078000      13.67553663      -0.00231233       0.00362997       0.03637992
C        6.15004000       6.39125000      13.67553698      -0.00030605       0.00053695       0.03640056
C        4.92001000       8.52171000      13.67553550       0.00123247      -0.00002308       0.03631588
C        3.68999000      10.65218000      13.67553301       0.00116878      -0.00525456       0.03619469
C        2.46005000      12.78249000      13.67553373      -0.00202391       0.00016958       0.03619974
C       12.30007000       0.00000000      13.67552221      -0.01706128       0.01299534       0.03295696
C       11.07005000       2.13047000      13.67552019      -0.00590163       0.00020391       0.03450681
C        9.84011000       4.26078000      13.67553631      -0.00880076       0.00414114       0.03636095
C        8.61009000       6.39125000      13.67553667      -0.00538472       0.00020835       0.03640009
C        7.38006000       8.52171000      13.67553652      -0.00606290       0.00091557       0.03637391
C        6.15004000      10.65218000      13.67552008      -0.00467946      -0.00537132       0.03450109
C        4.92010000      12.78249000      13.67552204      -0.00043121      -0.01480698       0.03294612
C       14.75995000       0.00000000      13.67587572      -0.05597831      -0.03270440       0.07759226
C       13.52993000       2.13047000      13.67546773       0.01622700       0.01184149       0.01010074
C       12.29999000       4.26078000      13.67553017       0.01385551      -0.00433092       0.03541480
C       11.06996000       6.39125000      13.67553675       0.00175718       0.00094261       0.03638705
C        9.83994000       8.52171000      13.67553662       0.00184557       0.00079463       0.03638012
C        8.60991000      10.65218000      13.67553016       0.00151858       0.01388686       0.03541508
C        7.37998000      12.78249000      13.67546774       0.01943581       0.00885592       0.01010119
C        0.00000000       1.42031000      13.72973617       0.00006459       0.00041825       1.79372623
C       -1.23002000       3.55078000      13.67569447      -0.02144811       0.14219401       0.03292486
C       -2.45996000       5.68109000      13.67541077       0.00757143       0.02253606       0.03050227
C       -3.68999000       7.81156000      13.67546156       0.00091160      -0.00048457       0.03328857
C       -4.92001000       9.94202000      13.67546155      -0.00037124      -0.00005331       0.03328478
C       -6.14995000      12.07234000      13.67541084       0.02178713       0.00086922       0.03050026
C       -7.37998000      14.20280000      13.67569429       0.11483249      -0.09442025       0.03292509
C        2.46005000       1.42031000      13.67569416       0.13471729      -0.05361274       0.03290605
C        1.23002000       3.55078000      13.67569443       0.02377909       0.13977019       0.03291498
C        0.00009000       5.68109000      13.67531810      -0.00452517      -0.00858119       0.02812902
C       -1.22994000       7.81156000      13.67546308      -0.00582279      -0.00509613       0.03336506
C       -2.45996000       9.94202000      13.67546551      -0.00475367      -0.00330706       0.03351626
C       -3.68990000      12.07234000      13.67546295      -0.00797382       0.00250378       0.03335394
C       -4.91993000      14.20280000      13.67531822      -0.01081756       0.00168206       0.02813436
C        4.91993000       1.42031000      13.67541089       0.01515669      -0.01618899       0.03050534
C        3.68990000       3.55078000      13.67541644       0.02483464       0.00825623       0.03387394
C        2.45996000       5.68109000      13.67541081      -0.00653050       0.02299052       0.03050153
C        1.22994000       7.81156000      13.67546320       0.00245550      -0.00218134       0.03337173
C       -0.00009000       9.94202000      13.67546650       0.00117463      -0.00033764       0.03359212
C       -1.23002000      12.07234000      13.67546637       0.00054285       0.00524513       0.03358437
C       -2.46005000      14.20280000      13.67546314      -0.00054738       0.00340015       0.03336804
C        7.37998000       1.42031000      13.67546160      -0.00127927       0.00009792       0.03328977
C        6.14995000       3.55078000      13.67545632       0.00878416      -0.00872223       0.03301679
C        4.92001000       5.68109000      13.67545637      -0.00077130       0.00833330       0.03302306
C        3.68999000       7.81156000      13.67546162      -0.00087746      -0.00074808       0.03329236
C        2.45996000       9.94202000      13.67546566       0.00026701      -0.00125119       0.03352748
C        1.23002000      12.07234000      13.67546639      -0.00021477       0.00447233       0.03358901
C        0.00000000      14.20280000      13.67546562      -0.00018369       0.00005088       0.03352821
C        9.84002000       1.42031000      13.67546153       0.00003033      -0.00028272       0.03328490
C        8.61000000       3.55078000      13.67546553       0.00212495      -0.00558567       0.03354700
C        7.38006000       5.68109000      13.67546603      -0.00051295       0.00100047       0.03360230
C        6.15004000       7.81156000      13.67546565      -0.00187745      -0.00010284       0.03355794