13
Lattice="4.260799885 0.0 0.0 -2.130399942 3.689960941 0.0 0.0 0.0 24.0" Properties=species:S:1:pos:R:3:forces:R:3 stress="-0.015141389335644464 4.019531877068819e-06 -0.0 4.019531877068819e-06 -0.015143823524203556 -0.0 -0.0 -0.0 0.009204472096613433" free_energy=-113.37174212 energy=-113.37089721 pbc="T T T"
C        0.00000000       0.00000000      14.00000000      -0.01506400      -0.02555700      -0.07177500
C       -0.00002000       2.45999000      14.00000000       0.03088000      -0.00000300      -0.07178000
C        2.13042000       1.22997000      14.00000000      -0.01694000       0.02700300      -0.07180100
C        2.84053000       2.45999000      14.00000000      -0.02998800      -0.00045500      -0.07177300
C        0.71010000       1.23001000      14.00000000       0.01692100       0.02505500      -0.07179600
C        2.84055000       0.00000000      14.00000000       0.01419100      -0.02601800      -0.07177700
C        0.00000000       0.00000000      10.00000000      -0.01506400      -0.02555700       0.07177500
C       -0.00002000       2.45999000      10.00000000       0.03088000      -0.00000300       0.07178000
C        2.13042000       1.22997000      10.00000000      -0.01694000       0.02700300       0.07180100
C        2.84053000       2.45999000      10.00000000      -0.02998800      -0.00045500       0.07177300
C        0.71010000       1.23001000      10.00000000       0.01692100       0.02505500       0.07179600
C        2.84055000       0.00000000      10.00000000       0.01419100      -0.02601800       0.07177700
Li       1.42030000       2.45999000      12.00000000      -0.00000100      -0.00005300      -0.00000000
13
Lattice="4.260799885 0.0 0.0 -2.130399942 3.689960941 0.0 0.0 0.0 24.0" Properties=species:S:1:pos:R:3:forces:R:3 stress="-0.01534667881230389 4.019531877068819e-06 -0.0 4.019531877068819e-06 -0.015349106759353857 -0.0 -0.0 -0.0 0.0086343352040005" free_energy=-113.37461757 energy=-113.37377115 pbc="T T T"
C        0.00000000       0.00000000      13.99654000      -0.01483500      -0.02516100      -0.05865300
C       -0.00002000       2.45999000      13.99654000       0.03042100      -0.00000100      -0.05865600
C        2.13042000       1.22997000      13.99654000      -0.01670800       0.02660500      -0.05866800
C        2.84053000       2.45999000      13.99654000      -0.02953100      -0.00045400      -0.05865500
C        0.71010000       1.23001000      13.99654000       0.01668900       0.02465800      -0.05866900
C        2.84055000       0.00000000      13.99654000       0.01396400      -0.02562200      -0.05865800
C        0.00000000       0.00000000      10.00346000      -0.01483500      -0.02516100       0.05865300
C       -0.00002000       2.45999000      10.00346000       0.03042100      -0.00000100       0.05865600
C        2.13042000       1.22997000      10.00346000      -0.01670800       0.02660500       0.05866800
C        2.84053000       2.45999000      10.00346000      -0.02953100      -0.00045400       0.05865500
C        0.71010000       1.23001000      10.00346000       0.01668900       0.02465800       0.05866900
C        2.84055000       0.00000000      10.00346000       0.01396400      -0.02562200       0.05865800
Li       1.42030000       2.45998000      12.00000000      -0.00000100      -0.00005200       0.00000000
13
Lattice="4.260799885 0.0 0.0 -2.130399942 3.689960941 0.0 0.0 0.0 24.0" Properties=species:S:1:pos:R:3:forces:R:3 stress="-0.015591071343636975 3.994565840565286e-06 -0.0 3.994565840565286e-06 -0.01559348680766869 -0.0 -0.0 -0.0 0.008419046829721409" free_energy=-113.38257545 energy=-113.38170693 pbc="T T T"
C        0.00000000       0.00000000      13.98106000      -0.01409000      -0.02387300      -0.04676300
C       -0.00002000       2.45999000      13.98106000       0.02893100      -0.00000000      -0.04675900
C        2.13042000       1.22997000      13.98106000      -0.01596000       0.02531100      -0.04674200
C        2.84053000       2.45999000      13.98106000      -0.02803700      -0.00044800      -0.04675300
C        0.71010000       1.23001000      13.98106000       0.01594000       0.02336300      -0.04673400
C        2.84055000       0.00000000      13.98106000       0.01321800      -0.02432900      -0.04675300
C        0.00000000       0.00000000      10.01894000      -0.01409000      -0.02387300       0.04676300
C       -0.00002000       2.45999000      10.01894000       0.02893100      -0.00000000       0.04675900
C        2.13042000       1.22997000      10.01894000      -0.01596000       0.02531100       0.04674200
C        2.84053000       2.45999000      10.01894000      -0.02803700      -0.00044800       0.04675300
C        0.71010000       1.23001000      10.01894000       0.01594000       0.02336300       0.04673400
C        2.84055000       0.00000000      10.01894000       0.01321800      -0.02432900       0.04675300
Li       1.42029000       2.45997000      12.00000000      -0.00000200      -0.00004700       0.00000000
13
Lattice="4.260799885 0.0 0.0 -2.130399942 3.689960941 0.0 0.0 0.0 24.0" Properties=species:S:1:pos:R:3:forces:R:3 stress="-0.013874431639690545 3.482762092242858e-06 -0.0 3.482762092242858e-06 -0.013876329058464813 -0.0 -0.0 -0.0 0.006451991538135419" free_energy=-113.41545055 energy=-113.41401762 pbc="T T T"
C        0.00000000       0.00000000      13.92030000      -0.01060400      -0.01794300      -0.03638900
C       -0.00002000       2.45999000      13.92030000       0.02202700      -0.00005400      -0.03636600
C        2.13042000       1.22997000      13.92029000      -0.01243100       0.01922400      -0.03628000
C        2.84053000       2.45999000      13.92030000      -0.02113400      -0.00036800      -0.03639100
C        0.71010000       1.23001000      13.92029000       0.01241000       0.01741500      -0.03630100
C        2.84055000       0.00000000      13.92030000       0.00973500      -0.01826400      -0.03638500
C        0.00000000       0.00000000      10.07970000      -0.01060400      -0.01794300       0.03638900
C       -0.00002000       2.45999000      10.07970000       0.02202700      -0.00005400       0.03636600
C        2.13042000       1.22997000      10.07971000      -0.01243100       0.01922400       0.03628000
C        2.84053000       2.45999000      10.07970000      -0.02113400      -0.00036800       0.03639100
C        0.71010000       1.23001000      10.07971000       0.01241000       0.01741500       0.03630100
C        2.84055000       0.00000000      10.07970000       0.00973500      -0.01826400       0.03638500
Li       1.42029000       2.45991000      12.00000000      -0.00000600      -0.00001900      -0.00000000
13
Lattice="4.260799885 0.0 0.0 -2.130399942 3.689960941 0.0 0.0 0.0 24.0" Properties=species:S:1:pos:R:3:forces:R:3 stress="-0.014046173004798348 1.672100294824125e-05 -0.0 1.672100294824125e-05 -0.014063511917150051 -0.0 -0.0 -0.0 -0.003859630654772815" free_energy=-113.29668067 energy=-113.29550926 pbc="T T T"
C        0.00000000       0.00000000      13.70789000       0.01625300       0.03027000       0.13859400
C       -0.00002000       2.45999000      13.70789000      -0.03324700       0.00081700       0.13871100
C        2.13042000       1.22997000      13.70787000       0.01462000      -0.02751200       0.13898300
C        2.84053000       2.45999000      13.70789000       0.03323300       0.00048200       0.13872000
C        0.71010000       1.23001000      13.70787000      -0.01258900      -0.03454500       0.14212800
C        2.84055000       0.00000000      13.70788000      -0.01802700       0.02991500       0.13865900
C        0.00000000       0.00000000      10.29211000       0.01625300       0.03027000      -0.13859400
C       -0.00002000       2.45999000      10.29211000      -0.03324700       0.00081700      -0.13871100
C        2.13042000       1.22997000      10.29213000       0.01462000      -0.02751200      -0.13898300
C        2.84053000       2.45999000      10.29211000       0.03323300       0.00048200      -0.13872000
C        0.71010000       1.23001000      10.29213000      -0.01258900      -0.03454500      -0.14212800
C        2.84055000       0.00000000      10.29212000      -0.01802700       0.02991500      -0.13865900
Li       1.42029000       2.45972000      12.00000000      -0.00048500       0.00114700       0.00000000
13
Lattice="4.260799885 0.0 0.0 -2.130399942 3.689960941 0.0 0.0 0.0 24.0" Properties=species:S:1:pos:R:3:forces:R:3 stress="-0.013740195502920176 2.952233816542781e-06 -0.0 2.952233816542781e-06 -0.013741425080217974 -0.0 -0.0 -0.0 0.004789590548492918" free_energy=-113.42228204 energy=-113.42011079 pbc="T T T"
C        0.00000000       0.00000000      13.87634000      -0.00776700      -0.01319200       0.00392400
C       -0.00002000       2.45999000      13.87634000       0.01649900      -0.00014400       0.00392100
C        2.13042000       1.22997000      13.87633000      -0.00958400       0.01429700       0.00397500
C        2.84053000       2.45999000      13.87634000      -0.01560400      -0.00027800       0.00372100
C        0.71010000       1.23001000      13.87636000       0.00955800       0.01266700       0.00350600
C        2.84055000       0.00000000      13.87633000       0.00690500      -0.01334500       0.00373500
C        0.00000000       0.00000000      10.12366000      -0.00776700      -0.01319200      -0.00392400
C       -0.00002000       2.45999000      10.12366000       0.01649900      -0.00014400      -0.00392100
C        2.13042000       1.22997000      10.12367000      -0.00958400       0.01429700      -0.00397500
C        2.84053000       2.45999000      10.12366000      -0.01560400      -0.00027800      -0.00372100
C        0.71010000       1.23001000      10.12364000       0.00955800       0.01266700      -0.00350600
C        2.84055000       0.00000000      10.12367000       0.00690500      -0.01334500      -0.00373500
Li       1.42029000       2.45989000      12.00000000      -0.00001400      -0.00001000       0.00000000
