13
Lattice="4.260799885 0.0 0.0 -2.130399942 3.689960941 0.0 0.0 0.0 24.0" Properties=species:S:1:pos:R:3:forces:R:3 stress="-0.015678340124235073 2.858611179654532e-06 -0.0 2.858611179654532e-06 -0.01567969453171539 -0.0 -0.0 -0.0 -0.01666584673209582" free_energy=-112.77525233 energy=-112.77358443 pbc="T T T"
C        0.00000000       0.00000000      13.55000000       0.06348100       0.11042500       0.40882200
C       -0.00002000       2.45999000      13.55000000      -0.12610100      -0.00009500       0.40874300
C        2.13042000       1.22997000      13.55000000       0.06164700      -0.10903800       0.40875400
C        2.84053000       2.45999000      13.55000000       0.12705900      -0.00042400       0.40883800
C        0.71010000       1.23001000      13.55000000      -0.06169800      -0.11086900       0.40877000
C        2.84055000       0.00000000      13.55000000      -0.06433800       0.11006800       0.40879800
C        0.00000000       0.00000000      10.45000000       0.06348100       0.11042500      -0.40882200
C       -0.00002000       2.45999000      10.45000000      -0.12610100      -0.00009500      -0.40874300
C        2.13042000       1.22997000      10.45000000       0.06164700      -0.10903800      -0.40875400
C        2.84053000       2.45999000      10.45000000       0.12705900      -0.00042400      -0.40883800
C        0.71010000       1.23001000      10.45000000      -0.06169800      -0.11086900      -0.40877000
C        2.84055000       0.00000000      10.45000000      -0.06433800       0.11006800      -0.40879800
Li       1.42030000       2.45999000      12.00000000      -0.00009900      -0.00013200      -0.00000000
13
Lattice="4.260799885 0.0 0.0 -2.130399942 3.689960941 0.0 0.0 0.0 24.0" Properties=species:S:1:pos:R:3:forces:R:3 stress="-0.01527408381966074 3.02713192605338e-06 -0.0 3.02713192605338e-06 -0.015275656679960463 -0.0 -0.0 -0.0 -0.01457713194462811" free_energy=-112.86899339 energy=-112.86773086 pbc="T T T"
C        0.00000000       0.00000000      13.56972000       0.05637800       0.09819000       0.38949700
C       -0.00002000       2.45999000      13.56972000      -0.11197900      -0.00005000       0.38947600
C        2.13042000       1.22997000      13.56972000       0.05455100      -0.09675000       0.38948000
C        2.84053000       2.45999000      13.56972000       0.11291600      -0.00045300       0.38948300
C        0.71010000       1.23001000      13.56972000      -0.05459500      -0.09865800       0.38946400
C        2.84055000       0.00000000      13.56972000      -0.05723800       0.09777100       0.38947000
C        0.00000000       0.00000000      10.43028000       0.05637800       0.09819000      -0.38949700
C       -0.00002000       2.45999000      10.43028000      -0.11197900      -0.00005000      -0.38947600
C        2.13042000       1.22997000      10.43028000       0.05455100      -0.09675000      -0.38948000
C        2.84053000       2.45999000      10.43028000       0.11291600      -0.00045300      -0.38948300
C        0.71010000       1.23001000      10.43028000      -0.05459500      -0.09865800      -0.38946400
C        2.84055000       0.00000000      10.43028000      -0.05723800       0.09777100      -0.38947000
Li       1.42029000       2.45998000      12.00000000      -0.00006600      -0.00009800      -0.00000000
13
Lattice="4.260799885 0.0 0.0 -2.130399942 3.689960941 0.0 0.0 0.0 24.0" Properties=species:S:1:pos:R:3:forces:R:3 stress="-0.015406310190492576 3.94463376755822e-06 -0.0 3.94463376755822e-06 -0.015408675722451286 -0.0 -0.0 -0.0 0.007746274561042453" free_energy=-113.38952427 energy=-113.38860707 pbc="T T T"
C        0.00000000       0.00000000      13.96752000      -0.01340000      -0.02270500      -0.04786900
C       -0.00002000       2.45999000      13.96749000       0.02750600       0.00001700      -0.04763100
C        2.13042000       1.22997000      13.96749000      -0.01522100       0.02409600      -0.04769700
C        2.84053000       2.45999000      13.96750000      -0.02666800      -0.00041600      -0.04754100
C        0.71010000       1.23001000      13.96748000       0.01521600       0.02212000      -0.04733900
C        2.84055000       0.00000000      13.96749000       0.01255300      -0.02310600      -0.04741800
C        0.00000000       0.00000000      10.03248000      -0.01340000      -0.02270500       0.04786900
C       -0.00002000       2.45999000      10.03251000       0.02750600       0.00001700       0.04763100
C        2.13042000       1.22997000      10.03251000      -0.01522100       0.02409600       0.04769700
C        2.84053000       2.45999000      10.03250000      -0.02666800      -0.00041600       0.04754100
C        0.71010000       1.23001000      10.03252000       0.01521600       0.02212000       0.04733900
C        2.84055000       0.00000000      10.03251000       0.01255300      -0.02310600       0.04741800
Li       1.42022000       2.45988000      12.00000000       0.00002800      -0.00001400       0.00000000
13
Lattice="4.260799885 0.0 0.0 -2.130399942 3.689960941 0.0 0.0 0.0 24.0" Properties=species:S:1:pos:R:3:forces:R:3 stress="-0.014114386458035127 6.777030608884041e-05 -0.0 6.777030608884041e-05 -0.014071345011103038 -0.0 -0.0 -0.0 0.006684325473837298" free_energy=-113.41389467 energy=-113.41252163 pbc="T T T"
C        0.00000000       0.00000000      13.92420000      -0.01150200      -0.01587500      -0.03108700
C       -0.00002000       2.45999000      13.92418000       0.03255300      -0.00138100      -0.03187800
C        2.13042000       1.22997000      13.92418000      -0.02200700       0.02953000      -0.03191000
C        2.84053000       2.45999000      13.92420000      -0.01639600      -0.00807800      -0.03207600
C        0.71010000       1.23001000      13.92419000       0.02011600       0.01073400      -0.03212300
C        2.84055000       0.00000000      13.92419000      -0.00245100      -0.01617400      -0.03201300
C        0.00000000       0.00000000      10.07580000      -0.01150200      -0.01587500       0.03108700
C       -0.00002000       2.45999000      10.07582000       0.03255300      -0.00138100       0.03187800
C        2.13042000       1.22997000      10.07582000      -0.02200700       0.02953000       0.03191000
C        2.84053000       2.45999000      10.07580000      -0.01639600      -0.00807800       0.03207600
C        0.71010000       1.23001000      10.07581000       0.02011600       0.01073400       0.03212300
C        2.84055000       0.00000000      10.07581000      -0.00245100      -0.01617400       0.03201300
Li       1.42023000       2.45989000      12.00000000      -0.00062700       0.00249000       0.00000000
13
Lattice="4.260799885 0.0 0.0 -2.130399942 3.689960941 0.0 0.0 0.0 24.0" Properties=species:S:1:pos:R:3:forces:R:3 stress="-0.014960497918158113 2.8835772161580654e-06 -0.0 2.8835772161580654e-06 -0.014961377970944864 -0.0 -0.0 -0.0 0.0030046624932002007" free_energy=-113.4125864 energy=-113.41014166 pbc="T T T"
C        0.00000000       0.00000000      13.83706000      -0.00444300      -0.00768400       0.02778800
C       -0.00002000       2.45999000      13.83693000       0.01005600      -0.00029100       0.02887500
C        2.13042000       1.22997000      13.83693000      -0.00644700       0.00883300       0.02875600
C        2.84053000       2.45999000      13.83692000      -0.00927500      -0.00031200       0.03010800
C        0.71010000       1.23001000      13.83690000       0.00643100       0.00717000       0.03026900
C        2.84055000       0.00000000      13.83692000       0.00361100      -0.00760700       0.03020900
C        0.00000000       0.00000000      10.16294000      -0.00444300      -0.00768400      -0.02778800
C       -0.00002000       2.45999000      10.16307000       0.01005600      -0.00029100      -0.02887500
C        2.13042000       1.22997000      10.16307000      -0.00644700       0.00883300      -0.02875600
C        2.84053000       2.45999000      10.16308000      -0.00927500      -0.00031200      -0.03010800
C        0.71010000       1.23001000      10.16310000       0.00643100       0.00717000      -0.03026900
C        2.84055000       0.00000000      10.16308000       0.00361100      -0.00760700      -0.03020900
Li       1.42015000       2.46027000      12.00000000       0.00013500      -0.00021700       0.00000000
13
Lattice="4.260799885 0.0 0.0 -2.130399942 3.689960941 0.0 0.0 0.0 24.0" Properties=species:S:1:pos:R:3:forces:R:3 stress="-0.013741175419852938 2.989682871298081e-06 -0.0 2.989682871298081e-06 -0.01374241123865986 -0.0 -0.0 -0.0 0.004803459181770629" free_energy=-113.4224303 energy=-113.42029537 pbc="T T T"
C        0.00000000       0.00000000      13.87882000      -0.00787200      -0.01347800       0.00667800
C       -0.00002000       2.45999000      13.87876000       0.01679100      -0.00019900       0.00723000
C        2.13042000       1.22997000      13.87875000      -0.00980600       0.01467700       0.00719100
C        2.84053000       2.45999000      13.87878000      -0.01599200      -0.00033500       0.00692400
C        0.71010000       1.23001000      13.87877000       0.00980300       0.01296200       0.00703600
C        2.84055000       0.00000000      13.87878000       0.00703800      -0.01356300       0.00696900
C        0.00000000       0.00000000      10.12118000      -0.00787200      -0.01347800      -0.00667800
C       -0.00002000       2.45999000      10.12124000       0.01679100      -0.00019900      -0.00723000
C        2.13042000       1.22997000      10.12125000      -0.00980600       0.01467700      -0.00719100
C        2.84053000       2.45999000      10.12122000      -0.01599200      -0.00033500      -0.00692400
C        0.71010000       1.23001000      10.12123000       0.00980300       0.01296200      -0.00703600
C        2.84055000       0.00000000      10.12122000       0.00703800      -0.01356300      -0.00696900
Li       1.42018000       2.46014000      12.00000000       0.00007500      -0.00012800      -0.00000000
