13
Lattice="4.260799885 0.0 0.0 -2.130399942 3.689960941 0.0 0.0 0.0 24.0" Properties=species:S:1:pos:R:3:forces:R:3 stress="-0.015295361124270879 3.102030035563979e-06 -0.0 3.102030035563979e-06 -0.015296983916643605 -0.0 -0.0 -0.0 -0.022225814268978253" free_energy=-112.4898717 energy=-112.48831998 pbc="T T T"
C        0.00000000       0.00000000      13.50000000       0.08858700       0.15394700       0.55824400
C       -0.00002000       2.45999000      13.50000000      -0.17633200      -0.00007800       0.55815100
C        2.13042000       1.22997000      13.50000000       0.08675900      -0.15251100       0.55816400
C        2.84053000       2.45999000      13.50000000       0.17730100      -0.00044400       0.55826100
C        0.71010000       1.23001000      13.50000000      -0.08681800      -0.15437900       0.55818500
C        2.84055000       0.00000000      13.50000000      -0.08943500       0.15354200       0.55821200
C        0.00000000       0.00000000      10.50000000       0.08858700       0.15394700      -0.55824400
C       -0.00002000       2.45999000      10.50000000      -0.17633200      -0.00007800      -0.55815100
C        2.13042000       1.22997000      10.50000000       0.08675900      -0.15251100      -0.55816400
C        2.84053000       2.45999000      10.50000000       0.17730100      -0.00044400      -0.55826100
C        0.71010000       1.23001000      10.50000000      -0.08681800      -0.15437900      -0.55818500
C        2.84055000       0.00000000      10.50000000      -0.08943500       0.15354200      -0.55821200
Li       1.42030000       2.45999000      12.00000000      -0.00012500      -0.00015200      -0.00000000
13
Lattice="4.260799885 0.0 0.0 -2.130399942 3.689960941 0.0 0.0 0.0 24.0" Properties=species:S:1:pos:R:3:forces:R:3 stress="-0.01491894195039798 3.1394790903192784e-06 -0.0 3.1394790903192784e-06 -0.01492061467484372 -0.0 -0.0 -0.0 -0.018092143914524406" free_energy=-112.654047 energy=-112.65252561 pbc="T T T"
C        0.00000000       0.00000000      13.52693000       0.07394700       0.12859200       0.46812200
C       -0.00002000       2.45999000      13.52693000      -0.14708300      -0.00007500       0.46810000
C        2.13042000       1.22997000      13.52693000       0.07212800      -0.12717100       0.46810000
C        2.84053000       2.45999000      13.52693000       0.14802800      -0.00044100       0.46810300
C        0.71010000       1.23001000      13.52693000      -0.07218100      -0.12905300       0.46809100
C        2.84055000       0.00000000      13.52693000      -0.07480000       0.12820000       0.46808600
C        0.00000000       0.00000000      10.47307000       0.07394700       0.12859200      -0.46812200
C       -0.00002000       2.45999000      10.47307000      -0.14708300      -0.00007500      -0.46810000
C        2.13042000       1.22997000      10.47307000       0.07212800      -0.12717100      -0.46810000
C        2.84053000       2.45999000      10.47307000       0.14802800      -0.00044100      -0.46810300
C        0.71010000       1.23001000      10.47307000      -0.07218100      -0.12905300      -0.46809100
C        2.84055000       0.00000000      10.47307000      -0.07480000       0.12820000      -0.46808600
Li       1.42029000       2.45998000      12.00000000      -0.00007700      -0.00010400       0.00000000
13
Lattice="4.260799885 0.0 0.0 -2.130399942 3.689960941 0.0 0.0 0.0 24.0" Properties=species:S:1:pos:R:3:forces:R:3 stress="-0.014439013589181439 3.6700073660193554e-06 -0.0 3.6700073660193554e-06 -0.014441110736247738 -0.0 -0.0 -0.0 -0.00644401488947254" free_energy=-113.20659347 energy=-113.20546044 pbc="T T T"
C        0.00000000       0.00000000      13.66684000       0.02793600       0.04883000       0.22014200
C       -0.00002000       2.45999000      13.66683000      -0.05507500      -0.00005900       0.22025300
C        2.13042000       1.22997000      13.66683000       0.02611400      -0.04749400       0.22023200
C        2.84053000       2.45999000      13.66684000       0.05595800      -0.00039800       0.22025600
C        0.71010000       1.23001000      13.66683000      -0.02615200      -0.04937100       0.22034000
C        2.84055000       0.00000000      13.66683000      -0.02879000       0.04849900       0.22030500
C        0.00000000       0.00000000      10.33316000       0.02793600       0.04883000      -0.22014200
C       -0.00002000       2.45999000      10.33317000      -0.05507500      -0.00005900      -0.22025300
C        2.13042000       1.22997000      10.33317000       0.02611400      -0.04749400      -0.22023200
C        2.84053000       2.45999000      10.33316000       0.05595800      -0.00039800      -0.22025600
C        0.71010000       1.23001000      10.33317000      -0.02615200      -0.04937100      -0.22034000
C        2.84055000       0.00000000      10.33317000      -0.02879000       0.04849900      -0.22030500
Li       1.42027000       2.45995000      12.00000000       0.00001800      -0.00001300       0.00000000
13
Lattice="4.260799885 0.0 0.0 -2.130399942 3.689960941 0.0 0.0 0.0 24.0" Properties=species:S:1:pos:R:3:forces:R:3 stress="-0.015021739605701282 2.921026270913365e-06 -0.0 2.921026270913365e-06 -0.015023025356581213 -0.0 -0.0 -0.0 0.001248807387415848" free_energy=-113.39495588 energy=-113.39285331 pbc="T T T"
C        0.00000000       0.00000000      13.79116000       0.00088900       0.00174200       0.09365700
C       -0.00002000       2.45999000      13.79116000      -0.00079100      -0.00017100       0.09372800
C        2.13042000       1.22997000      13.79116000      -0.00092800      -0.00066800       0.09372200
C        2.84053000       2.45999000      13.79116000       0.00165300      -0.00026900       0.09361300
C        0.71010000       1.23001000      13.79116000       0.00090900      -0.00229100       0.09364800
C        2.84055000       0.00000000      13.79116000      -0.00174600       0.00166300       0.09366200
C        0.00000000       0.00000000      10.20884000       0.00088900       0.00174200      -0.09365700
C       -0.00002000       2.45999000      10.20884000      -0.00079100      -0.00017100      -0.09372800
C        2.13042000       1.22997000      10.20884000      -0.00092800      -0.00066800      -0.09372200
C        2.84053000       2.45999000      10.20884000       0.00165300      -0.00026900      -0.09361300
C        0.71010000       1.23001000      10.20884000       0.00090900      -0.00229100      -0.09364800
C        2.84055000       0.00000000      10.20884000      -0.00174600       0.00166300      -0.09366200
Li       1.42025000       2.45992000      12.00000000       0.00002500      -0.00000900      -0.00000000
13
Lattice="4.260799885 0.0 0.0 -2.130399942 3.689960941 0.0 0.0 0.0 24.0" Properties=species:S:1:pos:R:3:forces:R:3 stress="-0.013750606340142147 3.0021658895498473e-06 -0.0 3.0021658895498473e-06 -0.01375193578158596 -0.0 -0.0 -0.0 0.005037603155119015" free_energy=-113.42292423 energy=-113.42085608 pbc="T T T"
C        0.00000000       0.00000000      13.88316000      -0.00822900      -0.01399400       0.01177800
C       -0.00002000       2.45999000      13.88316000       0.01739700      -0.00013000       0.01179600
C        2.13042000       1.22997000      13.88316000      -0.01004900       0.01513000       0.01180000
C        2.84053000       2.45999000      13.88316000      -0.01653700      -0.00029800       0.01184400
C        0.71010000       1.23001000      13.88316000       0.01003700       0.01343800       0.01183900
C        2.84055000       0.00000000      13.88316000       0.00737100      -0.01414000       0.01187300
C        0.00000000       0.00000000      10.11684000      -0.00822900      -0.01399400      -0.01177800
C       -0.00002000       2.45999000      10.11684000       0.01739700      -0.00013000      -0.01179600
C        2.13042000       1.22997000      10.11684000      -0.01004900       0.01513000      -0.01180000
C        2.84053000       2.45999000      10.11684000      -0.01653700      -0.00029800      -0.01184400
C        0.71010000       1.23001000      10.11684000       0.01003700       0.01343800      -0.01183900
C        2.84055000       0.00000000      10.11684000       0.00737100      -0.01414000      -0.01187300
Li       1.42024000       2.45990000      12.00000000       0.00002100      -0.00001500       0.00000000
13
Lattice="4.260799885 0.0 0.0 -2.130399942 3.689960941 0.0 0.0 0.0 24.0" Properties=species:S:1:pos:R:3:forces:R:3 stress="-0.014685266090234041 3.1644451268228113e-06 -0.0 3.1644451268228113e-06 -0.014686807742988132 -0.0 -0.0 -0.0 0.004620320820998963" free_energy=-113.42341309 energy=-113.42156885 pbc="T T T"
C        0.00000000       0.00000000      13.89645000      -0.00906700      -0.01539500      -0.01067900
C       -0.00002000       2.45999000      13.89645000       0.01902200      -0.00010000      -0.01069300
C        2.13042000       1.22997000      13.89645000      -0.01088400       0.01657500      -0.01068900
C        2.84053000       2.45999000      13.89645000      -0.01816800      -0.00032100      -0.01072200
C        0.71010000       1.23001000      13.89645000       0.01087300       0.01484300      -0.01070900
C        2.84055000       0.00000000      13.89645000       0.00821300      -0.01559500      -0.01070900
C        0.00000000       0.00000000      10.10355000      -0.00906700      -0.01539500       0.01067900
C       -0.00002000       2.45999000      10.10355000       0.01902200      -0.00010000       0.01069300
C        2.13042000       1.22997000      10.10355000      -0.01088400       0.01657500       0.01068900
C        2.84053000       2.45999000      10.10355000      -0.01816800      -0.00032100       0.01072200
C        0.71010000       1.23001000      10.10355000       0.01087300       0.01484300       0.01070900
C        2.84055000       0.00000000      10.10355000       0.00821300      -0.01559500       0.01070900
Li       1.42024000       2.45990000      12.00000000       0.00002100      -0.00001600       0.00000000
13
Lattice="4.260799885 0.0 0.0 -2.130399942 3.689960941 0.0 0.0 0.0 24.0" Properties=species:S:1:pos:R:3:forces:R:3 stress="-0.014076687742914791 3.0770639990604465e-06 -0.0 3.0770639990604465e-06 -0.014078129531522873 -0.0 -0.0 -0.0 0.005220011259322952" free_energy=-113.42384318 energy=-113.42188967 pbc="T T T"
C        0.00000000       0.00000000      13.89014000      -0.00867500      -0.01474000       0.01521800
C       -0.00002000       2.45999000      13.89014000       0.01826300      -0.00011500       0.01523400
C        2.13042000       1.22997000      13.89014000      -0.01049300       0.01589800       0.01523700
C        2.84053000       2.45999000      13.89014000      -0.01740600      -0.00030800       0.01522500
C        0.71010000       1.23001000      13.89014000       0.01048100       0.01418800       0.01521200
C        2.84055000       0.00000000      13.89014000       0.00782100      -0.01491500       0.01523600
C        0.00000000       0.00000000      10.10986000      -0.00867500      -0.01474000      -0.01521800
C       -0.00002000       2.45999000      10.10986000       0.01826300      -0.00011500      -0.01523400
C        2.13042000       1.22997000      10.10986000      -0.01049300       0.01589800      -0.01523700
C        2.84053000       2.45999000      10.10986000      -0.01740600      -0.00030800      -0.01522500
C        0.71010000       1.23001000      10.10986000       0.01048100       0.01418800      -0.01521200
C        2.84055000       0.00000000      10.10986000       0.00782100      -0.01491500      -0.01523600
Li       1.42024000       2.45990000      12.00000000       0.00002000      -0.00001500       0.00000000
13
Lattice="4.260799885 0.0 0.0 -2.130399942 3.689960941 0.0 0.0 0.0 24.0" Properties=species:S:1:pos:R:3:forces:R:3 stress="-0.014674873977539441 3.1394790903192784e-06 -0.0 3.1394790903192784e-06 -0.014676359456711403 -0.0 -0.0 -0.0 0.00454864333019732" free_energy=-113.42380303 energy=-113.42191198 pbc="T T T"
C        0.00000000       0.00000000      13.89385000      -0.00891800      -0.01514600      -0.01461900
C       -0.00002000       2.45999000      13.89385000       0.01873300      -0.00010600      -0.01461100
C        2.13042000       1.22997000      13.89384000      -0.01073500       0.01631600      -0.01460800
C        2.84053000       2.45999000      13.89385000      -0.01787800      -0.00031500      -0.01460700
C        0.71010000       1.23001000      13.89385000       0.01072300       0.01459400      -0.01461500
C        2.84055000       0.00000000      13.89384000       0.00806400      -0.01533600      -0.01460000
C        0.00000000       0.00000000      10.10615000      -0.00891800      -0.01514600       0.01461900
C       -0.00002000       2.45999000      10.10615000       0.01873300      -0.00010600       0.01461100
C        2.13042000       1.22997000      10.10616000      -0.01073500       0.01631600       0.01460800
C        2.84053000       2.45999000      10.10615000      -0.01787800      -0.00031500       0.01460700
C        0.71010000       1.23001000      10.10615000       0.01072300       0.01459400       0.01461500
C        2.84055000       0.00000000      10.10616000       0.00806400      -0.01533600       0.01460000
Li       1.42024000       2.45990000      12.00000000       0.00002000      -0.00001500       0.00000000
13
Lattice="4.260799885 0.0 0.0 -2.130399942 3.689960941 0.0 0.0 0.0 24.0" Properties=species:S:1:pos:R:3:forces:R:3 stress="-0.014213907321047334 3.102030035563979e-06 -0.0 3.102030035563979e-06 -0.014215374075691917 -0.0 -0.0 -0.0 0.004731413441930559" free_energy=-113.42411031 energy=-113.42218958 pbc="T T T"
C        0.00000000       0.00000000      13.89203000      -0.00878900      -0.01492900      -0.00119300
C       -0.00002000       2.45999000      13.89203000       0.01848200      -0.00010900      -0.00119100
C        2.13042000       1.22997000      13.89203000      -0.01060500       0.01609200      -0.00118800
C        2.84053000       2.45999000      13.89203000      -0.01762500      -0.00031200      -0.00119200
C        0.71010000       1.23001000      13.89203000       0.01059300       0.01437700      -0.00119400
C        2.84055000       0.00000000      13.89203000       0.00793500      -0.01511200      -0.00118700
C        0.00000000       0.00000000      10.10797000      -0.00878900      -0.01492900       0.00119300
C       -0.00002000       2.45999000      10.10797000       0.01848200      -0.00010900       0.00119100
C        2.13042000       1.22997000      10.10797000      -0.01060500       0.01609200       0.00118800
C        2.84053000       2.45999000      10.10797000      -0.01762500      -0.00031200       0.00119200
C        0.71010000       1.23001000      10.10797000       0.01059300       0.01437700       0.00119400
C        2.84055000       0.00000000      10.10797000       0.00793500      -0.01511200       0.00118700
Li       1.42024000       2.45990000      12.00000000       0.00002000      -0.00001500       0.00000000
