13
Lattice="4.260799885 0.0 0.0 -2.130399942 3.689960941 0.0 0.0 0.0 24.0" Properties=species:S:1:pos:R:3:forces:R:3 stress="-0.015141283229989321 3.4640375648652083e-06 -0.0 3.4640375648652083e-06 -0.015143155682727089 -0.0 -0.0 -0.0 -0.0014737139272579254" free_energy=-113.35284779 energy=-113.35146031 pbc="T T T"
C        0.00000000       0.00000000      13.75000000       0.00737000       0.01316200       0.08643100
C       -0.00002000       2.45999000      13.75000000      -0.01384700      -0.00009500       0.08639500
C        2.13042000       1.22997000      13.75000000       0.00551000      -0.01184700       0.08638600
C        2.84053000       2.45999000      13.75000000       0.01476200      -0.00038800       0.08643900
C        0.71010000       1.23001000      13.75000000      -0.00554500      -0.01364000       0.08639900
C        2.84055000       0.00000000      13.75000000      -0.00823200       0.01284800       0.08641600
C        0.00000000       0.00000000      10.25000000       0.00737000       0.01316200      -0.08643100
C       -0.00002000       2.45999000      10.25000000      -0.01384700      -0.00009500      -0.08639500
C        2.13042000       1.22997000      10.25000000       0.00551000      -0.01184700      -0.08638600
C        2.84053000       2.45999000      10.25000000       0.01476200      -0.00038800      -0.08643900
C        0.71010000       1.23001000      10.25000000      -0.00554500      -0.01364000      -0.08639900
C        2.84055000       0.00000000      10.25000000      -0.00823200       0.01284800      -0.08641600
Li       1.42030000       2.45999000      12.00000000      -0.00003400      -0.00008200      -0.00000000
13
Lattice="4.260799885 0.0 0.0 -2.130399942 3.689960941 0.0 0.0 0.0 24.0" Properties=species:S:1:pos:R:3:forces:R:3 stress="-0.015140409418711698 3.4016224736063755e-06 -0.0 3.4016224736063755e-06 -0.015142213214849078 -0.0 -0.0 -0.0 -0.001240044308603108" free_energy=-113.35725441 energy=-113.35579989 pbc="T T T"
C        0.00000000       0.00000000      13.75417000       0.00657900       0.01177200       0.08954200
C       -0.00002000       2.45999000      13.75417000      -0.01225500      -0.00010300       0.08952700
C        2.13042000       1.22997000      13.75417000       0.00472300      -0.01048200       0.08952200
C        2.84053000       2.45999000      13.75417000       0.01316500      -0.00037600       0.08953500
C        0.71010000       1.23001000      13.75417000      -0.00475800      -0.01225500       0.08951700
C        2.84055000       0.00000000      13.75417000      -0.00744000       0.01148200       0.08952300
C        0.00000000       0.00000000      10.24583000       0.00657900       0.01177200      -0.08954200
C       -0.00002000       2.45999000      10.24583000      -0.01225500      -0.00010300      -0.08952700
C        2.13042000       1.22997000      10.24583000       0.00472300      -0.01048200      -0.08952200
C        2.84053000       2.45999000      10.24583000       0.01316500      -0.00037600      -0.08953500
C        0.71010000       1.23001000      10.24583000      -0.00475800      -0.01225500      -0.08951700
C        2.84055000       0.00000000      10.24583000      -0.00744000       0.01148200      -0.08952300
Li       1.42029000       2.45998000      12.00000000      -0.00002900      -0.00007500      -0.00000000
13
Lattice="4.260799885 0.0 0.0 -2.130399942 3.689960941 0.0 0.0 0.0 24.0" Properties=species:S:1:pos:R:3:forces:R:3 stress="-0.015037168616260463 3.3766564371028426e-06 -0.0 3.3766564371028426e-06 -0.015038972412397843 -0.0 -0.0 -0.0 -0.009151294438860907" free_energy=-113.11402502 energy=-113.11280642 pbc="T T T"
C        0.00000000       0.00000000      13.63442000       0.03754300       0.06549600       0.25542400
C       -0.00002000       2.45999000      13.63443000      -0.07411100      -0.00009900       0.25505800
C        2.13042000       1.22997000      13.63444000       0.03557800      -0.06398200       0.25497900
C        2.84053000       2.45999000      13.63442000       0.07511400      -0.00047100       0.25515500
C        0.71010000       1.23001000      13.63445000      -0.03562700      -0.06580800       0.25476900
C        2.84055000       0.00000000      13.63444000      -0.03840400       0.06504400       0.25498300
C        0.00000000       0.00000000      10.36558000       0.03754300       0.06549600      -0.25542400
C       -0.00002000       2.45999000      10.36557000      -0.07411100      -0.00009900      -0.25505800
C        2.13042000       1.22997000      10.36556000       0.03557800      -0.06398200      -0.25497900
C        2.84053000       2.45999000      10.36558000       0.07511400      -0.00047100      -0.25515500
C        0.71010000       1.23001000      10.36555000      -0.03562700      -0.06580800      -0.25476900
C        2.84055000       0.00000000      10.36556000      -0.03840400       0.06504400      -0.25498300
Li       1.42033000       2.46008000      12.00000000      -0.00018700      -0.00036200       0.00000000
13
Lattice="4.260799885 0.0 0.0 -2.130399942 3.689960941 0.0 0.0 0.0 24.0" Properties=species:S:1:pos:R:3:forces:R:3 stress="-0.015042411483926205 2.7899545792698165e-06 -0.0 2.7899545792698165e-06 -0.015043534955568863 -0.0 -0.0 -0.0 0.002430424929091563" free_energy=-113.40800231 energy=-113.4056359 pbc="T T T"
C        0.00000000       0.00000000      13.81893000      -0.00265300      -0.00442800       0.02368500
C       -0.00002000       2.45999000      13.81892000       0.00635000      -0.00019500       0.02372800
C        2.13042000       1.22997000      13.81892000      -0.00448100       0.00546800       0.02374100
C        2.84053000       2.45999000      13.81893000      -0.00546300      -0.00025100       0.02365600
C        0.71010000       1.23001000      13.81893000       0.00445900       0.00389800       0.02370900
C        2.84055000       0.00000000      13.81892000       0.00178800      -0.00448200       0.02369400
C        0.00000000       0.00000000      10.18107000      -0.00265300      -0.00442800      -0.02368500
C       -0.00002000       2.45999000      10.18108000       0.00635000      -0.00019500      -0.02372800
C        2.13042000       1.22997000      10.18108000      -0.00448100       0.00546800      -0.02374100
C        2.84053000       2.45999000      10.18107000      -0.00546300      -0.00025100      -0.02365600
C        0.71010000       1.23001000      10.18107000       0.00445900       0.00389800      -0.02370900
C        2.84055000       0.00000000      10.18108000       0.00178800      -0.00448200      -0.02369400
Li       1.42028000       2.45993000      12.00000000       0.00000100      -0.00001900      -0.00000000
13
Lattice="4.260799885 0.0 0.0 -2.130399942 3.689960941 0.0 0.0 0.0 24.0" Properties=species:S:1:pos:R:3:forces:R:3 stress="-0.014954905525981322 2.74002250626275e-06 -0.0 2.74002250626275e-06 -0.014955972824041848 -0.0 -0.0 -0.0 0.0029357874399960787" free_energy=-113.41291208 energy=-113.41046566 pbc="T T T"
C        0.00000000       0.00000000      13.83783000      -0.00462100      -0.00783900       0.03075600
C       -0.00002000       2.45999000      13.83783000       0.01027800      -0.00018900       0.03079000
C        2.13042000       1.22997000      13.83782000      -0.00643900       0.00886900       0.03080100
C        2.84053000       2.45999000      13.83783000      -0.00939900      -0.00024700       0.03076300
C        0.71010000       1.23001000      13.83783000       0.00641900       0.00730300       0.03080300
C        2.84055000       0.00000000      13.83782000       0.00375900      -0.00789000       0.03079600
C        0.00000000       0.00000000      10.16217000      -0.00462100      -0.00783900      -0.03075600
C       -0.00002000       2.45999000      10.16217000       0.01027800      -0.00018900      -0.03079000
C        2.13042000       1.22997000      10.16218000      -0.00643900       0.00886900      -0.03080100
C        2.84053000       2.45999000      10.16217000      -0.00939900      -0.00024700      -0.03076300
C        0.71010000       1.23001000      10.16217000       0.00641900       0.00730300      -0.03080300
C        2.84055000       0.00000000      10.16218000       0.00375900      -0.00789000      -0.03079600
Li       1.42027000       2.45992000      12.00000000       0.00000500      -0.00001300       0.00000000
13
Lattice="4.260799885 0.0 0.0 -2.130399942 3.689960941 0.0 0.0 0.0 24.0" Properties=species:S:1:pos:R:3:forces:R:3 stress="-0.015146419991999924 3.389139455354609e-06 -0.0 3.389139455354609e-06 -0.015148223788137306 -0.0 -0.0 -0.0 -0.0010920206781736609" free_energy=-113.35888094 energy=-113.35739849 pbc="T T T"
C        0.00000000       0.00000000      13.75568000       0.00633300       0.01133600       0.09084900
C       -0.00002000       2.45999000      13.75568000      -0.01176300      -0.00010600       0.09088300
C        2.13042000       1.22997000      13.75567000       0.00448200      -0.01006000       0.09089200
C        2.84053000       2.45999000      13.75568000       0.01266700      -0.00036900       0.09090300
C        0.71010000       1.23001000      13.75567000      -0.00451600      -0.01182900       0.09094400
C        2.84055000       0.00000000      13.75567000      -0.00719400       0.01106000       0.09093600
C        0.00000000       0.00000000      10.24432000       0.00633300       0.01133600      -0.09084900
C       -0.00002000       2.45999000      10.24432000      -0.01176300      -0.00010600      -0.09088300
C        2.13042000       1.22997000      10.24433000       0.00448200      -0.01006000      -0.09089200
C        2.84053000       2.45999000      10.24432000       0.01266700      -0.00036900      -0.09090300
C        0.71010000       1.23001000      10.24433000      -0.00451600      -0.01182900      -0.09094400
C        2.84055000       0.00000000      10.24433000      -0.00719400       0.01106000      -0.09093600
Li       1.42029000       2.45998000      12.00000000      -0.00001900      -0.00006400      -0.00000000
13
Lattice="4.260799885 0.0 0.0 -2.130399942 3.689960941 0.0 0.0 0.0 24.0" Properties=species:S:1:pos:R:3:forces:R:3 stress="-0.013747260891250675 2.9584753256686646e-06 -0.0 2.9584753256686646e-06 -0.013748552883639732 -0.0 -0.0 -0.0 0.004912173787725264" free_energy=-113.42253384 energy=-113.42041507 pbc="T T T"
C        0.00000000       0.00000000      13.87990000      -0.00802400      -0.01363600       0.00807900
C       -0.00002000       2.45999000      13.87990000       0.01699000      -0.00013100       0.00809000
C        2.13042000       1.22997000      13.87989000      -0.00983300       0.01475300       0.00809600
C        2.84053000       2.45999000      13.87990000      -0.01611700      -0.00028700       0.00808300
C        0.71010000       1.23001000      13.87990000       0.00981700       0.01308400       0.00809600
C        2.84055000       0.00000000      13.87989000       0.00716200      -0.01378200       0.00810600
C        0.00000000       0.00000000      10.12010000      -0.00802400      -0.01363600      -0.00807900
C       -0.00002000       2.45999000      10.12010000       0.01699000      -0.00013100      -0.00809000
C        2.13042000       1.22997000      10.12011000      -0.00983300       0.01475300      -0.00809600
C        2.84053000       2.45999000      10.12010000      -0.01611700      -0.00028700      -0.00808300
C        0.71010000       1.23001000      10.12010000       0.00981700       0.01308400      -0.00809600
C        2.84055000       0.00000000      10.12011000       0.00716200      -0.01378200      -0.00810600
Li       1.42026000       2.45989000      12.00000000       0.00001000      -0.00000300       0.00000000
