13
Lattice="4.260799885 0.0 0.0 -2.130399942 3.689960941 0.0 0.0 0.0 24.0" Properties=species:S:1:pos:R:3:forces:R:3 stress="-0.01450142243893115 2.8461281614027656e-06 -0.0 2.8461281614027656e-06 -0.014502620808683317 -0.0 -0.0 -0.0 0.0017913568096923763" free_energy=-113.40210603 energy=-113.39990174 pbc="T T T"
C        0.00000000       0.00000000      13.80000000      -0.00039100      -0.00048800       0.05178100
C       -0.00002000       2.45999000      13.80000000       0.00184100      -0.00019900       0.05175100
C        2.13042000       1.22997000      13.80000000      -0.00225000       0.00157900       0.05174100
C        2.84053000       2.45999000      13.80000000      -0.00093200      -0.00028000       0.05178600
C        0.71010000       1.23001000      13.80000000       0.00222300       0.00000300       0.05175200
C        2.84055000       0.00000000      13.80000000      -0.00047900      -0.00057800       0.05176900
C        0.00000000       0.00000000      10.20000000      -0.00039100      -0.00048800      -0.05178100
C       -0.00002000       2.45999000      10.20000000       0.00184100      -0.00019900      -0.05175100
C        2.13042000       1.22997000      10.20000000      -0.00225000       0.00157900      -0.05174100
C        2.84053000       2.45999000      10.20000000      -0.00093200      -0.00028000      -0.05178600
C        0.71010000       1.23001000      10.20000000       0.00222300       0.00000300      -0.05175200
C        2.84055000       0.00000000      10.20000000      -0.00047900      -0.00057800      -0.05176900
Li       1.42030000       2.45999000      12.00000000      -0.00002400      -0.00007300      -0.00000000
13
Lattice="4.260799885 0.0 0.0 -2.130399942 3.689960941 0.0 0.0 0.0 24.0" Properties=species:S:1:pos:R:3:forces:R:3 stress="-0.014714850843490727 2.8461281614027656e-06 -0.0 2.8461281614027656e-06 -0.014716042971733768 -0.0 -0.0 -0.0 0.0014433989174335105" free_energy=-113.40369823 energy=-113.40146912 pbc="T T T"
C        0.00000000       0.00000000      13.80250000      -0.00071200      -0.00104700       0.03704500
C       -0.00002000       2.45999000      13.80250000       0.00248200      -0.00020000       0.03703100
C        2.13042000       1.22997000      13.80250000      -0.00256800       0.00213100       0.03702600
C        2.84053000       2.45999000      13.80250000      -0.00157600      -0.00027600       0.03703900
C        0.71010000       1.23001000      13.80250000       0.00254100       0.00056000       0.03702300
C        2.84055000       0.00000000      13.80250000      -0.00015600      -0.00113300       0.03702900
C        0.00000000       0.00000000      10.19750000      -0.00071200      -0.00104700      -0.03704500
C       -0.00002000       2.45999000      10.19750000       0.00248200      -0.00020000      -0.03703100
C        2.13042000       1.22997000      10.19750000      -0.00256800       0.00213100      -0.03702600
C        2.84053000       2.45999000      10.19750000      -0.00157600      -0.00027600      -0.03703900
C        0.71010000       1.23001000      10.19750000       0.00254100       0.00056000      -0.03702300
C        2.84055000       0.00000000      10.19750000      -0.00015600      -0.00113300      -0.03702900
Li       1.42029000       2.45998000      12.00000000      -0.00002100      -0.00006800       0.00000000
13
Lattice="4.260799885 0.0 0.0 -2.130399942 3.689960941 0.0 0.0 0.0 24.0" Properties=species:S:1:pos:R:3:forces:R:3 stress="-0.015026732813001988 2.808679106647466e-06 -0.0 2.808679106647466e-06 -0.0150278937336994 -0.0 -0.0 -0.0 0.0020157765118226346" free_energy=-113.4059516 energy=-113.40366401 pbc="T T T"
C        0.00000000       0.00000000      13.80878000      -0.00151900      -0.00245600       0.00943200
C       -0.00002000       2.45999000      13.80877000       0.00409600      -0.00020000       0.00944600
C        2.13042000       1.22997000      13.80877000      -0.00336700       0.00352100       0.00945000
C        2.84053000       2.45999000      13.80878000      -0.00319600      -0.00026700       0.00944900
C        0.71010000       1.23001000      13.80877000       0.00334100       0.00195700       0.00946500
C        2.84055000       0.00000000      13.80877000       0.00065200      -0.00252800       0.00945300
C        0.00000000       0.00000000      10.19122000      -0.00151900      -0.00245600      -0.00943200
C       -0.00002000       2.45999000      10.19123000       0.00409600      -0.00020000      -0.00944600
C        2.13042000       1.22997000      10.19123000      -0.00336700       0.00352100      -0.00945000
C        2.84053000       2.45999000      10.19122000      -0.00319600      -0.00026700      -0.00944900
C        0.71010000       1.23001000      10.19123000       0.00334100       0.00195700      -0.00946500
C        2.84055000       0.00000000      10.19123000       0.00065200      -0.00252800      -0.00945300
Li       1.42029000       2.45997000      12.00000000      -0.00001500      -0.00005400      -0.00000000
