13
Lattice="4.260799885 0.0 0.0 -2.130399942 3.689960941 0.0 0.0 0.0 24.0" Properties=species:S:1:pos:R:3:forces:R:3 stress="-0.014735897212263203 3.4016224736063755e-06 -0.0 3.4016224736063755e-06 -0.014737819597073976 -0.0 -0.0 -0.0 -0.011550586720432566" free_energy=-113.00220425 energy=-113.00137184 pbc="T T T"
C        0.00000000       0.00000000      13.60000000       0.04629000       0.08080600       0.31862400
C       -0.00002000       2.45999000      13.60000000      -0.09186600       0.00000000       0.31855700
C        2.13042000       1.22997000      13.60000000       0.04444300      -0.07926000       0.31856600
C        2.84053000       2.45999000      13.60000000       0.09281200      -0.00050300       0.31863600
C        0.71010000       1.23001000      13.60000000      -0.04448700      -0.08126700       0.31857700
C        2.84055000       0.00000000      13.60000000      -0.04715200       0.08028000       0.31860500
C        0.00000000       0.00000000      10.40000000       0.04629000       0.08080600      -0.31862400
C       -0.00002000       2.45999000      10.40000000      -0.09186600       0.00000000      -0.31855700
C        2.13042000       1.22997000      10.40000000       0.04444300      -0.07926000      -0.31856600
C        2.84053000       2.45999000      10.40000000       0.09281200      -0.00050300      -0.31863600
C        0.71010000       1.23001000      10.40000000      -0.04448700      -0.08126700      -0.31857700
C        2.84055000       0.00000000      10.40000000      -0.04715200       0.08028000      -0.31860500
Li       1.42030000       2.45999000      12.00000000      -0.00007800      -0.00011500       0.00000000
13
Lattice="4.260799885 0.0 0.0 -2.130399942 3.689960941 0.0 0.0 0.0 24.0" Properties=species:S:1:pos:R:3:forces:R:3 stress="-0.015207274705977289 3.3516904005993096e-06 -0.0 3.3516904005993096e-06 -0.01520909098513292 -0.0 -0.0 -0.0 -0.010493924191457032" free_energy=-113.05473935 energy=-113.05367442 pbc="T T T"
C        0.00000000       0.00000000      13.61537000       0.04210200       0.07347400       0.26834900
C       -0.00002000       2.45999000      13.61537000      -0.08343400      -0.00003000       0.26832800
C        2.13042000       1.22997000      13.61537000       0.04025600      -0.07200700       0.26832800
C        2.84053000       2.45999000      13.61537000       0.08436600      -0.00046300       0.26833600
C        0.71010000       1.23001000      13.61537000      -0.04030000      -0.07395000       0.26832000
C        2.84055000       0.00000000      13.61537000      -0.04296300       0.07302100       0.26832000
C        0.00000000       0.00000000      10.38463000       0.04210200       0.07347400      -0.26834900
C       -0.00002000       2.45999000      10.38463000      -0.08343400      -0.00003000      -0.26832800
C        2.13042000       1.22997000      10.38463000       0.04025600      -0.07200700      -0.26832800
C        2.84053000       2.45999000      10.38463000       0.08436600      -0.00046300      -0.26833600
C        0.71010000       1.23001000      10.38463000      -0.04030000      -0.07395000      -0.26832000
C        2.84055000       0.00000000      10.38463000      -0.04296300       0.07302100      -0.26832000
Li       1.42029000       2.45998000      12.00000000      -0.00005700      -0.00009100      -0.00000000
13
Lattice="4.260799885 0.0 0.0 -2.130399942 3.689960941 0.0 0.0 0.0 24.0" Properties=species:S:1:pos:R:3:forces:R:3 stress="-0.014473697655393972 3.6575243477675893e-06 -0.0 3.6575243477675893e-06 -0.014475788560951145 -0.0 -0.0 -0.0 -0.004500983166512075" free_energy=-113.2771199 energy=-113.27595733 pbc="T T T"
C        0.00000000       0.00000000      13.69743000       0.01945300       0.03413700       0.15557600
C       -0.00002000       2.45999000      13.69742000      -0.03809900      -0.00006000       0.15567100
C        2.13042000       1.22997000      13.69742000       0.01762800      -0.03280100       0.15565500
C        2.84053000       2.45999000      13.69742000       0.03898600      -0.00039800       0.15567100
C        0.71010000       1.23001000      13.69742000      -0.01766700      -0.03466100       0.15572800
C        2.84055000       0.00000000      13.69742000      -0.02030300       0.03379600       0.15570100
C        0.00000000       0.00000000      10.30257000       0.01945300       0.03413700      -0.15557600
C       -0.00002000       2.45999000      10.30258000      -0.03809900      -0.00006000      -0.15567100
C        2.13042000       1.22997000      10.30258000       0.01762800      -0.03280100      -0.15565500
C        2.84053000       2.45999000      10.30258000       0.03898600      -0.00039800      -0.15567100
C        0.71010000       1.23001000      10.30258000      -0.01766700      -0.03466100      -0.15572800
C        2.84055000       0.00000000      10.30258000      -0.02030300       0.03379600      -0.15570100
Li       1.42027000       2.45995000      12.00000000       0.00000400      -0.00002700      -0.00000000
13
Lattice="4.260799885 0.0 0.0 -2.130399942 3.689960941 0.0 0.0 0.0 24.0" Properties=species:S:1:pos:R:3:forces:R:3 stress="-0.015030920865625456 2.8211621248992326e-06 -0.0 2.8211621248992326e-06 -0.015032081786322869 -0.0 -0.0 -0.0 0.002116695472879041" free_energy=-113.40621883 energy=-113.40391416 pbc="T T T"
C        0.00000000       0.00000000      13.81079000      -0.00176200      -0.00288500       0.01258500
C       -0.00002000       2.45999000      13.81079000       0.00454300      -0.00018600       0.01265900
C        2.13042000       1.22997000      13.81079000      -0.00357600       0.00392000       0.01265500
C        2.84053000       2.45999000      13.81080000      -0.00367800      -0.00025000       0.01253200
C        0.71010000       1.23001000      13.81079000       0.00355900       0.00233400       0.01261000
C        2.84055000       0.00000000      13.81079000       0.00090300      -0.00293000       0.01259200
C        0.00000000       0.00000000      10.18921000      -0.00176200      -0.00288500      -0.01258500
C       -0.00002000       2.45999000      10.18921000       0.00454300      -0.00018600      -0.01265900
C        2.13042000       1.22997000      10.18921000      -0.00357600       0.00392000      -0.01265500
C        2.84053000       2.45999000      10.18920000      -0.00367800      -0.00025000      -0.01253200
C        0.71010000       1.23001000      10.18921000       0.00355900       0.00233400      -0.01261000
C        2.84055000       0.00000000      10.18921000       0.00090300      -0.00293000      -0.01259200
Li       1.42025000       2.45992000      12.00000000       0.00002200      -0.00000500      -0.00000000
13
Lattice="4.260799885 0.0 0.0 -2.130399942 3.689960941 0.0 0.0 0.0 24.0" Properties=species:S:1:pos:R:3:forces:R:3 stress="-0.014870651394291026 2.77747156101805e-06 -0.0 2.77747156101805e-06 -0.014871762382915432 -0.0 -0.0 -0.0 0.002623512255409888" free_energy=-113.40844623 energy=-113.40606745 pbc="T T T"
C        0.00000000       0.00000000      13.82078000      -0.00292600      -0.00490600       0.01738400
C       -0.00002000       2.45999000      13.82078000       0.00688000      -0.00019000       0.01742400
C        2.13042000       1.22997000      13.82078000      -0.00474200       0.00593600       0.01742400
C        2.84053000       2.45999000      13.82078000      -0.00601000      -0.00024600       0.01740600
C        0.71010000       1.23001000      13.82078000       0.00472500       0.00435500       0.01744900
C        2.84055000       0.00000000      13.82078000       0.00206400      -0.00494400       0.01744200
C        0.00000000       0.00000000      10.17922000      -0.00292600      -0.00490600      -0.01738400
C       -0.00002000       2.45999000      10.17922000       0.00688000      -0.00019000      -0.01742400
C        2.13042000       1.22997000      10.17922000      -0.00474200       0.00593600      -0.01742400
C        2.84053000       2.45999000      10.17922000      -0.00601000      -0.00024600      -0.01740600
C        0.71010000       1.23001000      10.17922000       0.00472500       0.00435500      -0.01744900
C        2.84055000       0.00000000      10.17922000       0.00206400      -0.00494400      -0.01744200
Li       1.42025000       2.45991000      12.00000000       0.00001800      -0.00000600      -0.00000000
13
Lattice="4.260799885 0.0 0.0 -2.130399942 3.689960941 0.0 0.0 0.0 24.0" Properties=species:S:1:pos:R:3:forces:R:3 stress="-0.015021371356662852 2.977199853046314e-06 -0.0 2.977199853046314e-06 -0.015022732005652297 -0.0 -0.0 -0.0 0.0010494723104625147" free_energy=-113.38797919 energy=-113.3859677 pbc="T T T"
C        0.00000000       0.00000000      13.78465000       0.00177600       0.00330100       0.08478300
C       -0.00002000       2.45999000      13.78464000      -0.00258000      -0.00016000       0.08487500
C        2.13042000       1.22997000      13.78464000      -0.00004100      -0.00220300       0.08487000
C        2.84053000       2.45999000      13.78465000       0.00344900      -0.00028100       0.08487100
C        0.71010000       1.23001000      13.78464000       0.00001900      -0.00385200       0.08496600
C        2.84055000       0.00000000      13.78464000      -0.00263500       0.00319900       0.08494500
C        0.00000000       0.00000000      10.21535000       0.00177600       0.00330100      -0.08478300
C       -0.00002000       2.45999000      10.21536000      -0.00258000      -0.00016000      -0.08487500
C        2.13042000       1.22997000      10.21536000      -0.00004100      -0.00220300      -0.08487000
C        2.84053000       2.45999000      10.21535000       0.00344900      -0.00028100      -0.08487100
C        0.71010000       1.23001000      10.21536000       0.00001900      -0.00385200      -0.08496600
C        2.84055000       0.00000000      10.21536000      -0.00263500       0.00319900      -0.08494500
Li       1.42026000       2.45993000      12.00000000       0.00002300      -0.00000600       0.00000000
13
Lattice="4.260799885 0.0 0.0 -2.130399942 3.689960941 0.0 0.0 0.0 24.0" Properties=species:S:1:pos:R:3:forces:R:3 stress="-0.014939295511657487 2.74002250626275e-06 -0.0 2.74002250626275e-06 -0.014940375292736266 -0.0 -0.0 -0.0 0.0026229942101524393" free_energy=-113.41052266 energy=-113.40809473 pbc="T T T"
C        0.00000000       0.00000000      13.83011000      -0.00387900      -0.00656100       0.02107100
C       -0.00002000       2.45999000      13.83011000       0.00878900      -0.00019000       0.02108600
C        2.13042000       1.22997000      13.83011000      -0.00569400       0.00758600       0.02108700
C        2.84053000       2.45999000      13.83011000      -0.00792100      -0.00024400       0.02107000
C        0.71010000       1.23001000      13.83011000       0.00567700       0.00601300       0.02108400
C        2.84055000       0.00000000      13.83011000       0.00302000      -0.00660000       0.02108400
C        0.00000000       0.00000000      10.16989000      -0.00387900      -0.00656100      -0.02107100
C       -0.00002000       2.45999000      10.16989000       0.00878900      -0.00019000      -0.02108600
C        2.13042000       1.22997000      10.16989000      -0.00569400       0.00758600      -0.02108700
C        2.84053000       2.45999000      10.16989000      -0.00792100      -0.00024400      -0.02107000
C        0.71010000       1.23001000      10.16989000       0.00567700       0.00601300      -0.02108400
C        2.84055000       0.00000000      10.16989000       0.00302000      -0.00660000      -0.02108400
Li       1.42025000       2.45991000      12.00000000       0.00001600      -0.00000800      -0.00000000
13
Lattice="4.260799885 0.0 0.0 -2.130399942 3.689960941 0.0 0.0 0.0 24.0" Properties=species:S:1:pos:R:3:forces:R:3 stress="-0.015209490441716973 2.74002250626275e-06 -0.0 2.74002250626275e-06 -0.01521054525675925 -0.0 -0.0 -0.0 0.002729817638841931" free_energy=-113.41552714 energy=-113.41308451 pbc="T T T"
C        0.00000000       0.00000000      13.84513000      -0.00528500      -0.00898600       0.02086300
C       -0.00002000       2.45999000      13.84513000       0.01159300      -0.00018200       0.02085800
C        2.13042000       1.22997000      13.84513000      -0.00709900       0.01001900       0.02086000
C        2.84053000       2.45999000      13.84513000      -0.01072500      -0.00024800       0.02087400
C        0.71010000       1.23001000      13.84513000       0.00708300       0.00843800       0.02086500
C        2.84055000       0.00000000      13.84513000       0.00442600      -0.00903700       0.02087200
C        0.00000000       0.00000000      10.15487000      -0.00528500      -0.00898600      -0.02086300
C       -0.00002000       2.45999000      10.15487000       0.01159300      -0.00018200      -0.02085800
C        2.13042000       1.22997000      10.15487000      -0.00709900       0.01001900      -0.02086000
C        2.84053000       2.45999000      10.15487000      -0.01072500      -0.00024800      -0.02087400
C        0.71010000       1.23001000      10.15487000       0.00708300       0.00843800      -0.02086500
C        2.84055000       0.00000000      10.15487000       0.00442600      -0.00903700      -0.02087200
Li       1.42025000       2.45991000      12.00000000       0.00001400      -0.00000800      -0.00000000
13
Lattice="4.260799885 0.0 0.0 -2.130399942 3.689960941 0.0 0.0 0.0 24.0" Properties=species:S:1:pos:R:3:forces:R:3 stress="-0.004017728080931438 2.9647168347945474e-06 -0.0 2.9647168347945474e-06 -0.004018970141247489 -0.0 -0.0 -0.0 0.002366930056753953" free_energy=-113.00255936 energy=-113.00087868 pbc="T T T"
C        0.00000000       0.00000000      15.29684000       0.00068600       0.00205000       0.01814200
C       -0.00002000       2.45999000      15.29697000      -0.00089900       0.00005500       0.01691700
C        2.13042000       1.22997000      15.29698000      -0.00101900      -0.00041300       0.01684600
C        2.84053000       2.45999000      15.29687000       0.00179700      -0.00053600       0.01764100
C        0.71010000       1.23001000      15.29699000       0.00102700      -0.00246200       0.01650100
C        2.84055000       0.00000000      15.29697000      -0.00157500       0.00146700       0.01662300
C        0.00000000       0.00000000       8.70316000       0.00068600       0.00205000      -0.01814200
C       -0.00002000       2.45999000       8.70303000      -0.00089900       0.00005500      -0.01691700
C        2.13042000       1.22997000       8.70302000      -0.00101900      -0.00041300      -0.01684600
C        2.84053000       2.45999000       8.70313000       0.00179700      -0.00053600      -0.01764100
C        0.71010000       1.23001000       8.70301000       0.00102700      -0.00246200      -0.01650100
C        2.84055000       0.00000000       8.70303000      -0.00157500       0.00146700      -0.01662300
Li       1.42018000       2.45938000      12.00000000      -0.00003300      -0.00032300      -0.00000000
13
Lattice="4.260799885 0.0 0.0 -2.130399942 3.689960941 0.0 0.0 0.0 24.0" Properties=species:S:1:pos:R:3:forces:R:3 stress="0.0010168666667889005 3.1644451268228113e-06 -0.0 3.1644451268228113e-06 0.0010156433310002273 -0.0 -0.0 -0.0 0.006116291969799788" free_energy=-112.64619867 energy=-112.64512888 pbc="T T T"
C        0.00000000       0.00000000      21.71884000      -0.00013600       0.00059700       0.00715800
C       -0.00002000       2.45999000      21.71920000       0.00072800      -0.00012500       0.00340000
C        2.13042000       1.22997000      21.71923000      -0.00179200       0.00099100       0.00313700
C        2.84053000       2.45999000      21.71884000       0.00017500      -0.00072000       0.00788800
C        0.71010000       1.23001000      21.71917000       0.00183000      -0.00112000       0.00442100
C        2.84055000       0.00000000      21.71916000      -0.00069700       0.00000600       0.00460600
C        0.00000000       0.00000000       2.28116000      -0.00013600       0.00059700      -0.00715800
C       -0.00002000       2.45999000       2.28080000       0.00072800      -0.00012500      -0.00340000
C        2.13042000       1.22997000       2.28077000      -0.00179200       0.00099100      -0.00313700
C        2.84053000       2.45999000       2.28116000       0.00017500      -0.00072000      -0.00788800
C        0.71010000       1.23001000       2.28083000       0.00183000      -0.00112000      -0.00442100
C        2.84055000       0.00000000       2.28084000      -0.00069700       0.00000600      -0.00460600
Li       1.41987000       2.45696000      12.00000000      -0.00021600       0.00074200       0.00000000
