13
Lattice="4.260799885 0.0 0.0 -2.130399942 3.689960941 0.0 0.0 0.0 24.0" Properties=species:S:1:pos:R:3:forces:R:3 stress="-0.014473610274266212 3.6387998203899396e-06 -0.0 3.6387998203899396e-06 -0.014475694938314257 -0.0 -0.0 -0.0 -0.004324978850671293" free_energy=-113.28197576 energy=-113.28081103 pbc="T T T"
C        0.00000000       0.00000000      13.70000000       0.01883600       0.03307300       0.15837200
C       -0.00002000       2.45999000      13.70000000      -0.03682500      -0.00006900       0.15833300
C        2.13042000       1.22997000      13.70000000       0.01698100      -0.03170500       0.15832500
C        2.84053000       2.45999000      13.70000000       0.03774300      -0.00041300       0.15838700
C        0.71010000       1.23001000      13.70000000      -0.01702200      -0.03354400       0.15833700
C        2.84055000       0.00000000      13.70000000      -0.01969100       0.03270500       0.15835700
C        0.00000000       0.00000000      10.30000000       0.01883600       0.03307300      -0.15837200
C       -0.00002000       2.45999000      10.30000000      -0.03682500      -0.00006900      -0.15833300
C        2.13042000       1.22997000      10.30000000       0.01698100      -0.03170500      -0.15832500
C        2.84053000       2.45999000      10.30000000       0.03774300      -0.00041300      -0.15838700
C        0.71010000       1.23001000      10.30000000      -0.01702200      -0.03354400      -0.15833700
C        2.84055000       0.00000000      10.30000000      -0.01969100       0.03270500      -0.15835700
Li       1.42030000       2.45999000      12.00000000      -0.00004500      -0.00009300      -0.00000000
13
Lattice="4.260799885 0.0 0.0 -2.130399942 3.689960941 0.0 0.0 0.0 24.0" Properties=species:S:1:pos:R:3:forces:R:3 stress="-0.014473560342193204 3.651282838641706e-06 -0.0 3.651282838641706e-06 -0.014475632523222998 -0.0 -0.0 -0.0 -0.004177810306992092" free_energy=-113.29628707 energy=-113.29511619 pbc="T T T"
C        0.00000000       0.00000000      13.70764000       0.01690700       0.02973200       0.15498700
C       -0.00002000       2.45999000      13.70764000      -0.03297200      -0.00006700       0.15498200
C        2.13042000       1.22997000      13.70764000       0.01505700      -0.02836700       0.15497700
C        2.84053000       2.45999000      13.70764000       0.03388500      -0.00041200       0.15499200
C        0.71010000       1.23001000      13.70764000      -0.01509500      -0.03021100       0.15496000
C        2.84055000       0.00000000      13.70764000      -0.01776400       0.02936600       0.15497600
C        0.00000000       0.00000000      10.29236000       0.01690700       0.02973200      -0.15498700
C       -0.00002000       2.45999000      10.29236000      -0.03297200      -0.00006700      -0.15498200
C        2.13042000       1.22997000      10.29236000       0.01505700      -0.02836700      -0.15497700
C        2.84053000       2.45999000      10.29236000       0.03388500      -0.00041200      -0.15499200
C        0.71010000       1.23001000      10.29236000      -0.01509500      -0.03021100      -0.15496000
C        2.84055000       0.00000000      10.29236000      -0.01776400       0.02936600      -0.15497600
Li       1.42029000       2.45998000      12.00000000      -0.00003700      -0.00008100       0.00000000
13
Lattice="4.260799885 0.0 0.0 -2.130399942 3.689960941 0.0 0.0 0.0 24.0" Properties=species:S:1:pos:R:3:forces:R:3 stress="-0.01596689133263378 3.938392258432336e-06 -0.0 3.938392258432336e-06 -0.015969206932519485 -0.0 -0.0 -0.0 0.010697977849309533" free_energy=-113.3082769 energy=-113.30734327 pbc="T T T"
C        0.00000000       0.00000000      14.05868000      -0.01665200      -0.02835000      -0.08676800
C       -0.00002000       2.45999000      14.05867000       0.03396000       0.00004200      -0.08663800
C        2.13042000       1.22997000      14.05866000      -0.01842200       0.02969400      -0.08659100
C        2.84053000       2.45999000      14.05870000      -0.03314000      -0.00038600      -0.08659100
C        0.71010000       1.23001000      14.05862000       0.01843900       0.02773900      -0.08604000
C        2.84055000       0.00000000      14.05866000       0.01581000      -0.02872100      -0.08631000
C        0.00000000       0.00000000       9.94132000      -0.01665200      -0.02835000       0.08676800
C       -0.00002000       2.45999000       9.94133000       0.03396000       0.00004200       0.08663800
C        2.13042000       1.22997000       9.94134000      -0.01842200       0.02969400       0.08659100
C        2.84053000       2.45999000       9.94130000      -0.03314000      -0.00038600       0.08659100
C        0.71010000       1.23001000       9.94138000       0.01843900       0.02773900       0.08604000
C        2.84055000       0.00000000       9.94134000       0.01581000      -0.02872100       0.08631000
Li       1.42021000       2.45980000      12.00000000       0.00001100      -0.00003700      -0.00000000
13
Lattice="4.260799885 0.0 0.0 -2.130399942 3.689960941 0.0 0.0 0.0 24.0" Properties=species:S:1:pos:R:3:forces:R:3 stress="-0.014753236124614908 3.6387998203899396e-06 -0.0 3.6387998203899396e-06 -0.014755320788662953 -0.0 -0.0 -0.0 0.006712986483743353" free_energy=-113.41001055 energy=-113.40876821 pbc="T T T"
C        0.00000000       0.00000000      13.93294000      -0.01142600      -0.01934300      -0.04897900
C       -0.00002000       2.45999000      13.93293000       0.02360100      -0.00001600      -0.04890400
C        2.13042000       1.22997000      13.93293000      -0.01322700       0.02064700      -0.04886900
C        2.84053000       2.45999000      13.93295000      -0.02275300      -0.00037600      -0.04912800
C        0.71010000       1.23001000      13.93292000       0.01322100       0.01876300      -0.04883900
C        2.84055000       0.00000000      13.93294000       0.01057100      -0.01967700      -0.04900300
C        0.00000000       0.00000000      10.06706000      -0.01142600      -0.01934300       0.04897900
C       -0.00002000       2.45999000      10.06707000       0.02360100      -0.00001600       0.04890400
C        2.13042000       1.22997000      10.06707000      -0.01322700       0.02064700       0.04886900
C        2.84053000       2.45999000      10.06705000      -0.02275300      -0.00037600       0.04912800
C        0.71010000       1.23001000      10.06708000       0.01322100       0.01876300       0.04883900
C        2.84055000       0.00000000      10.06706000       0.01057100      -0.01967700       0.04900300
Li       1.42024000       2.45986000      12.00000000       0.00002500       0.00000400       0.00000000
13
Lattice="4.260799885 0.0 0.0 -2.130399942 3.689960941 0.0 0.0 0.0 24.0" Properties=species:S:1:pos:R:3:forces:R:3 stress="-0.01491295634314626 3.158203617696929e-06 -0.0 3.158203617696929e-06 -0.01491445430533647 -0.0 -0.0 -0.0 9.268641051936638e-05" free_energy=-113.37177525 energy=-113.37003633 pbc="T T T"
C        0.00000000       0.00000000      13.76896000       0.00404900       0.00732500       0.08465700
C       -0.00002000       2.45999000      13.76897000      -0.00716000      -0.00013300       0.08459000
C        2.13042000       1.22997000      13.76897000       0.00221300      -0.00613400       0.08457300
C        2.84053000       2.45999000      13.76895000       0.00806900      -0.00032700       0.08491200
C        0.71010000       1.23001000      13.76897000      -0.00224500      -0.00783200       0.08470800
C        2.84055000       0.00000000      13.76896000      -0.00491300       0.00712500       0.08481500
C        0.00000000       0.00000000      10.23104000       0.00404900       0.00732500      -0.08465700
C       -0.00002000       2.45999000      10.23103000      -0.00716000      -0.00013300      -0.08459000
C        2.13042000       1.22997000      10.23103000       0.00221300      -0.00613400      -0.08457300
C        2.84053000       2.45999000      10.23105000       0.00806900      -0.00032700      -0.08491200
C        0.71010000       1.23001000      10.23103000      -0.00224500      -0.00783200      -0.08470800
C        2.84055000       0.00000000      10.23104000      -0.00491300       0.00712500      -0.08481500
Li       1.42028000       2.45995000      12.00000000      -0.00002600      -0.00004800      -0.00000000
13
Lattice="4.260799885 0.0 0.0 -2.130399942 3.689960941 0.0 0.0 0.0 24.0" Properties=species:S:1:pos:R:3:forces:R:3 stress="-0.01437921993175548 2.877335707032182e-06 -0.0 2.877335707032182e-06 -0.014380443267544151 -0.0 -0.0 -0.0 0.004868551880444466" free_energy=-113.42193615 energy=-113.41971636 pbc="T T T"
C        0.00000000       0.00000000      13.87288000      -0.00768400      -0.01307700       0.01095800
C       -0.00002000       2.45999000      13.87288000       0.01632900      -0.00014400       0.01097500
C        2.13042000       1.22997000      13.87288000      -0.00949200       0.01416700       0.01098600
C        2.84053000       2.45999000      13.87288000      -0.01546200      -0.00027600       0.01093000
C        0.71010000       1.23001000      13.87288000       0.00947900       0.01252100       0.01100200
C        2.84055000       0.00000000      13.87288000       0.00682200      -0.01319100       0.01095500
C        0.00000000       0.00000000      10.12712000      -0.00768400      -0.01307700      -0.01095800
C       -0.00002000       2.45999000      10.12712000       0.01632900      -0.00014400      -0.01097500
C        2.13042000       1.22997000      10.12712000      -0.00949200       0.01416700      -0.01098600
C        2.84053000       2.45999000      10.12712000      -0.01546200      -0.00027600      -0.01093000
C        0.71010000       1.23001000      10.12712000       0.00947900       0.01252100      -0.01100200
C        2.84055000       0.00000000      10.12712000       0.00682200      -0.01319100      -0.01095500
Li       1.42025000       2.45989000      12.00000000       0.00001500      -0.00000100       0.00000000
13
Lattice="4.260799885 0.0 0.0 -2.130399942 3.689960941 0.0 0.0 0.0 24.0" Properties=species:S:1:pos:R:3:forces:R:3 stress="-0.014072818007256743 3.04585645343103e-06 -0.0 3.04585645343103e-06 -0.014074253554355697 -0.0 -0.0 -0.0 0.005135176667283948" free_energy=-113.42352435 energy=-113.42154095 pbc="T T T"
C        0.00000000       0.00000000      13.88834000      -0.00857800      -0.01457100       0.01379500
C       -0.00002000       2.45999000      13.88834000       0.01806300      -0.00011300       0.01381200
C        2.13042000       1.22997000      13.88833000      -0.01038400       0.01571100       0.01382100
C        2.84053000       2.45999000      13.88834000      -0.01720000      -0.00029900       0.01379700
C        0.71010000       1.23001000      13.88833000       0.01037100       0.01401300       0.01385300
C        2.84055000       0.00000000      13.88833000       0.00772000      -0.01474000       0.01382100
C        0.00000000       0.00000000      10.11166000      -0.00857800      -0.01457100      -0.01379500
C       -0.00002000       2.45999000      10.11166000       0.01806300      -0.00011300      -0.01381200
C        2.13042000       1.22997000      10.11167000      -0.01038400       0.01571100      -0.01382100
C        2.84053000       2.45999000      10.11166000      -0.01720000      -0.00029900      -0.01379700
C        0.71010000       1.23001000      10.11167000       0.01037100       0.01401300      -0.01385300
C        2.84055000       0.00000000      10.11167000       0.00772000      -0.01474000      -0.01382100
Li       1.42025000       2.45988000      12.00000000       0.00001700      -0.00000200       0.00000000
13
Lattice="4.260799885 0.0 0.0 -2.130399942 3.689960941 0.0 0.0 0.0 24.0" Properties=species:S:1:pos:R:3:forces:R:3 stress="-0.015040907280226867 2.802437597521583e-06 -0.0 2.802437597521583e-06 -0.015042049476396906 -0.0 -0.0 -0.0 0.002215766947234186" free_energy=-113.40665982 energy=-113.40433389 pbc="T T T"
C        0.00000000       0.00000000      13.81338000      -0.00199100      -0.00327800       0.01583400
C       -0.00002000       2.45999000      13.81338000       0.00501000      -0.00018800       0.01585600
C        2.13042000       1.22997000      13.81338000      -0.00380900       0.00431400       0.01586600
C        2.84053000       2.45999000      13.81338000      -0.00413100      -0.00025100       0.01586400
C        0.71010000       1.23001000      13.81337000       0.00378800       0.00273700       0.01591900
C        2.84055000       0.00000000      13.81338000       0.00112800      -0.00333000       0.01588000
C        0.00000000       0.00000000      10.18662000      -0.00199100      -0.00327800      -0.01583400
C       -0.00002000       2.45999000      10.18662000       0.00501000      -0.00018800      -0.01585600
C        2.13042000       1.22997000      10.18662000      -0.00380900       0.00431400      -0.01586600
C        2.84053000       2.45999000      10.18662000      -0.00413100      -0.00025100      -0.01586400
C        0.71010000       1.23001000      10.18663000       0.00378800       0.00273700      -0.01591900
C        2.84055000       0.00000000      10.18662000       0.00112800      -0.00333000      -0.01588000
Li       1.42027000       2.45992000      12.00000000       0.00000800      -0.00001100      -0.00000000
13
Lattice="4.260799885 0.0 0.0 -2.130399942 3.689960941 0.0 0.0 0.0 24.0" Properties=species:S:1:pos:R:3:forces:R:3 stress="-0.0162106409885269 2.9335092891651313e-06 -0.0 2.9335092891651313e-06 -0.01621183935827907 -0.0 -0.0 -0.0 0.0121504331964847" free_energy=-112.80856628 energy=-112.80607878 pbc="T T T"
C        0.00000000       0.00000000      14.39273000      -0.01209800      -0.02055600      -0.06148000
C       -0.00002000       2.45999000      14.39274000       0.02494500      -0.00002000      -0.06162200
C        2.13042000       1.22997000      14.39274000      -0.01383400       0.02175700      -0.06169100
C        2.84053000       2.45999000      14.39274000      -0.02410200      -0.00029700      -0.06151300
C        0.71010000       1.23001000      14.39273000       0.01386400       0.01996200      -0.06164200
C        2.84055000       0.00000000      14.39273000       0.01123500      -0.02077600      -0.06146900
C        0.00000000       0.00000000       9.60727000      -0.01209800      -0.02055600       0.06148000
C       -0.00002000       2.45999000       9.60726000       0.02494500      -0.00002000       0.06162200
C        2.13042000       1.22997000       9.60726000      -0.01383400       0.02175700       0.06169100
C        2.84053000       2.45999000       9.60726000      -0.02410200      -0.00029700       0.06151300
C        0.71010000       1.23001000       9.60727000       0.01386400       0.01996200       0.06164200
C        2.84055000       0.00000000       9.60727000       0.01123500      -0.02077600       0.06146900
Li       1.42016000       2.45963000      12.00000000      -0.00001900      -0.00013800      -0.00000000
13
Lattice="4.260799885 0.0 0.0 -2.130399942 3.689960941 0.0 0.0 0.0 24.0" Properties=species:S:1:pos:R:3:forces:R:3 stress="-0.014736502638648414 3.651282838641706e-06 -0.0 3.651282838641706e-06 -0.014738549853641704 -0.0 -0.0 -0.0 0.006906791583611154" free_energy=-113.41049017 energy=-113.40923713 pbc="T T T"
C        0.00000000       0.00000000      13.93211000      -0.01137600      -0.01925100      -0.03971500
C       -0.00002000       2.45999000      13.93211000       0.02351200      -0.00002100      -0.03970500
C        2.13042000       1.22997000      13.93210000      -0.01318600       0.02055800      -0.03969300
C        2.84053000       2.45999000      13.93211000      -0.02265100      -0.00037700      -0.03974000
C        0.71010000       1.23001000      13.93210000       0.01317400       0.01868200      -0.03969500
C        2.84055000       0.00000000      13.93211000       0.01051900      -0.01959100      -0.03972600
C        0.00000000       0.00000000      10.06789000      -0.01137600      -0.01925100       0.03971500
C       -0.00002000       2.45999000      10.06789000       0.02351200      -0.00002100       0.03970500
C        2.13042000       1.22997000      10.06790000      -0.01318600       0.02055800       0.03969300
C        2.84053000       2.45999000      10.06789000      -0.02265100      -0.00037700       0.03974000
C        0.71010000       1.23001000      10.06790000       0.01317400       0.01868200       0.03969500
C        2.84055000       0.00000000      10.06789000       0.01051900      -0.01959100       0.03972600
Li       1.42024000       2.45986000      12.00000000       0.00001700      -0.00000100      -0.00000000
13
Lattice="4.260799885 0.0 0.0 -2.130399942 3.689960941 0.0 0.0 0.0 24.0" Properties=species:S:1:pos:R:3:forces:R:3 stress="-0.030158472775537834 2.8398866522768828e-06 -0.0 2.8398866522768828e-06 -0.030159427726434093 -0.0 -0.0 -0.0 -0.10991029809938917" free_energy=-104.38215383 energy=-104.37997922 pbc="T T T"
C        0.00000000       0.00000000      13.09523000       0.55414600       0.95998300       3.28512300
C       -0.00002000       2.45999000      13.09522000      -1.10531300      -0.00032600       3.28355300
C        2.13042000       1.22997000      13.09523000       0.55081400      -0.95686900       3.28299900
C        2.84053000       2.45999000      13.09522000       1.10735100      -0.00060400       3.28454600
C        0.71010000       1.23001000      13.09524000      -0.55091000      -0.95823200       3.28266300
C        2.84055000       0.00000000      13.09522000      -0.55486500       0.95910400       3.28481000
C        0.00000000       0.00000000      10.90477000       0.55414600       0.95998300      -3.28512300
C       -0.00002000       2.45999000      10.90478000      -1.10531300      -0.00032600      -3.28355300
C        2.13042000       1.22997000      10.90477000       0.55081400      -0.95686900      -3.28299900
C        2.84053000       2.45999000      10.90478000       1.10735100      -0.00060400      -3.28454600
C        0.71010000       1.23001000      10.90476000      -0.55091000      -0.95823200      -3.28266300
C        2.84055000       0.00000000      10.90478000      -0.55486500       0.95910400      -3.28481000
Li       1.42040000       2.46029000      12.00000000      -0.00244600      -0.00611200      -0.00000000
13
Lattice="4.260799885 0.0 0.0 -2.130399942 3.689960941 0.0 0.0 0.0 24.0" Properties=species:S:1:pos:R:3:forces:R:3 stress="-0.013875236794367784 3.495245110494625e-06 -0.0 3.495245110494625e-06 -0.013877159179178556 -0.0 -0.0 -0.0 0.006488616713686103" free_energy=-113.41470034 energy=-113.41329625 pbc="T T T"
C        0.00000000       0.00000000      13.92211000      -0.01074300      -0.01818400      -0.03361800
C       -0.00002000       2.45999000      13.92211000       0.02227000      -0.00003900      -0.03360200
C        2.13042000       1.22997000      13.92210000      -0.01254700       0.01945500      -0.03359200
C        2.84053000       2.45999000      13.92211000      -0.02140800      -0.00036000      -0.03361300
C        0.71010000       1.23001000      13.92210000       0.01253700       0.01761600      -0.03357800
C        2.84055000       0.00000000      13.92211000       0.00988300      -0.01848800      -0.03360700
C        0.00000000       0.00000000      10.07789000      -0.01074300      -0.01818400       0.03361800
C       -0.00002000       2.45999000      10.07789000       0.02227000      -0.00003900       0.03360200
C        2.13042000       1.22997000      10.07790000      -0.01254700       0.01945500       0.03359200
C        2.84053000       2.45999000      10.07789000      -0.02140800      -0.00036000       0.03361300
C        0.71010000       1.23001000      10.07790000       0.01253700       0.01761600       0.03357800
C        2.84055000       0.00000000      10.07789000       0.00988300      -0.01848800       0.03360700
Li       1.42025000       2.45986000      12.00000000       0.00001700       0.00000100       0.00000000
13
Lattice="4.260799885 0.0 0.0 -2.130399942 3.689960941 0.0 0.0 0.0 24.0" Properties=species:S:1:pos:R:3:forces:R:3 stress="-0.014154263459840395 3.4016224736063755e-06 -0.0 3.4016224736063755e-06 -0.014156054772959524 -0.0 -0.0 -0.0 0.006153447673626172" free_energy=-113.418436 energy=-113.4168932 pbc="T T T"
C        0.00000000       0.00000000      13.91373000      -0.01025900      -0.01737800      -0.03965400
C       -0.00002000       2.45999000      13.91373000       0.02133200      -0.00005500      -0.03963900
C        2.13042000       1.22997000      13.91373000      -0.01206300       0.01861900      -0.03963100
C        2.84053000       2.45999000      13.91373000      -0.02046900      -0.00034600      -0.03965400
C        0.71010000       1.23001000      13.91373000       0.01205100       0.01681100      -0.03962500
C        2.84055000       0.00000000      13.91373000       0.00940000      -0.01765200      -0.03965300
C        0.00000000       0.00000000      10.08627000      -0.01025900      -0.01737800       0.03965400
C       -0.00002000       2.45999000      10.08627000       0.02133200      -0.00005500       0.03963900
C        2.13042000       1.22997000      10.08627000      -0.01206300       0.01861900       0.03963100
C        2.84053000       2.45999000      10.08627000      -0.02046900      -0.00034600       0.03965400
C        0.71010000       1.23001000      10.08627000       0.01205100       0.01681100       0.03962500
C        2.84055000       0.00000000      10.08627000       0.00940000      -0.01765200       0.03965300
Li       1.42025000       2.45986000      12.00000000       0.00001700       0.00000300      -0.00000000
13
Lattice="4.260799885 0.0 0.0 -2.130399942 3.689960941 0.0 0.0 0.0 24.0" Properties=species:S:1:pos:R:3:forces:R:3 stress="-0.015407221450824956 3.950875276684102e-06 -0.0 3.950875276684102e-06 -0.015409618190329294 -0.0 -0.0 -0.0 0.007681337900096764" free_energy=-113.38883907 energy=-113.38792851 pbc="T T T"
C        0.00000000       0.00000000      13.96869000      -0.01347200      -0.02280800      -0.04555500
C       -0.00002000       2.45999000      13.96869000       0.02764400       0.00002300      -0.04555300
C        2.13042000       1.22997000      13.96869000      -0.01528500       0.02419600      -0.04554400
C        2.84053000       2.45999000      13.96870000      -0.02678500      -0.00041500      -0.04558500
C        0.71010000       1.23001000      13.96869000       0.01527600       0.02223900      -0.04554800
C        2.84055000       0.00000000      13.96869000       0.01261500      -0.02322900      -0.04556900
C        0.00000000       0.00000000      10.03131000      -0.01347200      -0.02280800       0.04555500
C       -0.00002000       2.45999000      10.03131000       0.02764400       0.00002300       0.04555300
C        2.13042000       1.22997000      10.03131000      -0.01528500       0.02419600       0.04554400
C        2.84053000       2.45999000      10.03130000      -0.02678500      -0.00041500       0.04558500
C        0.71010000       1.23001000      10.03131000       0.01527600       0.02223900       0.04554800
C        2.84055000       0.00000000      10.03131000       0.01261500      -0.02322900       0.04556900
Li       1.42024000       2.45985000      12.00000000       0.00001600      -0.00000900       0.00000000
13
Lattice="4.260799885 0.0 0.0 -2.130399942 3.689960941 0.0 0.0 0.0 24.0" Properties=species:S:1:pos:R:3:forces:R:3 stress="-0.015688376470909492 2.9959243804239636e-06 -0.0 2.9959243804239636e-06 -0.015689749602917188 -0.0 -0.0 -0.0 -0.01667730614285094" free_energy=-112.75265645 energy=-112.7510196 pbc="T T T"
C        0.00000000       0.00000000      13.54545000       0.06517700       0.11339600       0.41968300
C       -0.00002000       2.45999000      13.54545000      -0.12958300      -0.00007200       0.41969700
C        2.13042000       1.22997000      13.54545000       0.06341000      -0.11207200       0.41970500
C        2.84053000       2.45999000      13.54545000       0.13053600      -0.00040200       0.41976100
C        0.71010000       1.23001000      13.54546000      -0.06345800      -0.11389700       0.41959600
C        2.84055000       0.00000000      13.54545000      -0.06603300       0.11303800       0.41966800
C        0.00000000       0.00000000      10.45455000       0.06517700       0.11339600      -0.41968300
C       -0.00002000       2.45999000      10.45455000      -0.12958300      -0.00007200      -0.41969700
C        2.13042000       1.22997000      10.45455000       0.06341000      -0.11207200      -0.41970500
C        2.84053000       2.45999000      10.45455000       0.13053600      -0.00040200      -0.41976100
C        0.71010000       1.23001000      10.45454000      -0.06345800      -0.11389700      -0.41959600
C        2.84055000       0.00000000      10.45455000      -0.06603300       0.11303800      -0.41966800
Li       1.42029000       2.45993000      12.00000000      -0.00010000       0.00002000       0.00000000
13
Lattice="4.260799885 0.0 0.0 -2.130399942 3.689960941 0.0 0.0 0.0 24.0" Properties=species:S:1:pos:R:3:forces:R:3 stress="-0.014545893191453066 3.5639017108793404e-06 -0.0 3.5639017108793404e-06 -0.014547896715882476 -0.0 -0.0 -0.0 0.006966235716526067" free_energy=-113.41256833 energy=-113.41124392 pbc="T T T"
C        0.00000000       0.00000000      13.92725000      -0.01111200      -0.01880700      -0.03793100
C       -0.00002000       2.45999000      13.92725000       0.02299500      -0.00003100      -0.03792400
C        2.13042000       1.22997000      13.92725000      -0.01292000       0.02009700      -0.03792000
C        2.84053000       2.45999000      13.92725000      -0.02213300      -0.00036900      -0.03793100
C        0.71010000       1.23001000      13.92725000       0.01290900       0.01823900      -0.03790600
C        2.84055000       0.00000000      13.92725000       0.01025300      -0.01912900      -0.03792400
C        0.00000000       0.00000000      10.07275000      -0.01111200      -0.01880700       0.03793100
C       -0.00002000       2.45999000      10.07275000       0.02299500      -0.00003100       0.03792400
C        2.13042000       1.22997000      10.07275000      -0.01292000       0.02009700       0.03792000
C        2.84053000       2.45999000      10.07275000      -0.02213300      -0.00036900       0.03793100
C        0.71010000       1.23001000      10.07275000       0.01290900       0.01823900       0.03790600
C        2.84055000       0.00000000      10.07275000       0.01025300      -0.01912900       0.03792400
Li       1.42025000       2.45986000      12.00000000       0.00001600      -0.00000000       0.00000000
13
Lattice="4.260799885 0.0 0.0 -2.130399942 3.689960941 0.0 0.0 0.0 24.0" Properties=species:S:1:pos:R:3:forces:R:3 stress="-0.014685615614745087 3.158203617696929e-06 -0.0 3.158203617696929e-06 -0.014687132301462678 -0.0 -0.0 -0.0 0.0047028148471157626" free_energy=-113.42352617 energy=-113.42166583 pbc="T T T"
C        0.00000000       0.00000000      13.89561000      -0.00901200      -0.01529200      -0.01169700
C       -0.00002000       2.45999000      13.89561000       0.01890000      -0.00009300      -0.01168100
C        2.13042000       1.22997000      13.89561000      -0.01081100       0.01645500      -0.01167800
C        2.84053000       2.45999000      13.89561000      -0.01804000      -0.00030900      -0.01169000
C        0.71010000       1.23001000      13.89561000       0.01079800       0.01473000      -0.01168200
C        2.84055000       0.00000000      13.89561000       0.00815800      -0.01549300      -0.01168700
C        0.00000000       0.00000000      10.10439000      -0.00901200      -0.01529200       0.01169700
C       -0.00002000       2.45999000      10.10439000       0.01890000      -0.00009300       0.01168100
C        2.13042000       1.22997000      10.10439000      -0.01081100       0.01645500       0.01167800
C        2.84053000       2.45999000      10.10439000      -0.01804000      -0.00030900       0.01169000
C        0.71010000       1.23001000      10.10439000       0.01079800       0.01473000       0.01168200
C        2.84055000       0.00000000      10.10439000       0.00815800      -0.01549300       0.01168700
Li       1.42025000       2.45987000      12.00000000       0.00001600       0.00000400      -0.00000000
13
Lattice="4.260799885 0.0 0.0 -2.130399942 3.689960941 0.0 0.0 0.0 24.0" Properties=species:S:1:pos:R:3:forces:R:3 stress="-0.013750400370340993 2.977199853046314e-06 -0.0 2.977199853046314e-06 -0.013751717328766554 -0.0 -0.0 -0.0 0.005021337782336962" free_energy=-113.42270943 energy=-113.42061513 pbc="T T T"
C        0.00000000       0.00000000      13.88151000      -0.00812400      -0.01380300       0.00993000
C       -0.00002000       2.45999000      13.88152000       0.01717500      -0.00012300       0.00993000
C        2.13042000       1.22997000      13.88152000      -0.00992500       0.01491900       0.00993000
C        2.84053000       2.45999000      13.88152000      -0.01630700      -0.00028600       0.00992800
C        0.71010000       1.23001000      13.88152000       0.00991100       0.01324000       0.00993700
C        2.84055000       0.00000000      13.88151000       0.00726300      -0.01395000       0.00992800
C        0.00000000       0.00000000      10.11849000      -0.00812400      -0.01380300      -0.00993000
C       -0.00002000       2.45999000      10.11848000       0.01717500      -0.00012300      -0.00993000
C        2.13042000       1.22997000      10.11848000      -0.00992500       0.01491900      -0.00993000
C        2.84053000       2.45999000      10.11848000      -0.01630700      -0.00028600      -0.00992800