13
Lattice="4.260799885 0.0 0.0 -2.130399942 3.689960941 0.0 0.0 0.0 24.0" Properties=species:S:1:pos:R:3:forces:R:3 stress="-0.015744194287022267 3.31424134584401e-06 -6.241509125883259e-08 3.31424134584401e-06 -0.015748020332116433 1.0610565514001541e-07 -6.241509125883259e-08 1.0610565514001541e-07 0.001306616244939779" free_energy=-113.18630828 energy=-113.18511803 pbc="T T T"
C        0.00000000       0.00000000      13.95000000      -0.09613900      -0.16529200      -0.04857500
C       -0.00002000       2.45999000      13.95000000      -0.09594800       0.16618600      -0.04855000
C        2.13042000       1.22997000      13.95000000       0.19121600       0.00061300      -0.04857500
C        2.84053000       2.45999000      13.95000000       0.00021000       0.00016000      -0.04970800
C        0.71010000       1.23001000      13.95000000       0.00085300      -0.00147700       0.99683500
C        2.84055000       0.00000000      13.95000000      -0.00024400      -0.00010100      -0.04970800
C        0.00000000       0.00000000      10.05000000       0.00882800       0.01489600       0.05462500
C       -0.00002000       2.45999000      10.05000000       0.00945300      -0.01637300       0.05463600
C        2.13042000       1.22997000      10.05000000      -0.01731400      -0.00019700       0.05462500
C        3.55067000       1.22997000      10.05000000       0.01705800       0.00124200       0.06336900
C        1.42025000       0.00000000      10.05000000      -0.00837000       0.01449700       0.06336300
C        1.42030000       2.45995000      10.05000000      -0.00960500      -0.01415200       0.06336900
Li       0.71010000       1.23001000      12.00000000       0.00000100      -0.00000200      -1.10570600
13
Lattice="4.260799885 0.0 0.0 -2.130399942 3.689960941 0.0 0.0 0.0 24.0" Properties=species:S:1:pos:R:3:forces:R:3 stress="-0.015773897628952347 3.389139455354609e-06 -2.0596980115414753e-07 3.389139455354609e-06 -0.01577780481366515 3.62007529301229e-07 -2.0596980115414753e-07 3.62007529301229e-07 0.0033641796603602024" free_energy=-113.25975002 energy=-113.25876339 pbc="T T T"
C        0.00000000       0.00000000      13.94766000      -0.08135100      -0.13957600       0.17726900
C       -0.00002000       2.45999000      13.94766000      -0.08114500       0.14054800       0.17724700
C        2.13042000       1.22997000      13.94766000       0.16155200       0.00066400       0.17726900
C        2.84053000       2.45999000      13.94760000       0.00022900       0.00011300      -0.11434800
C        0.71010000       1.23001000      13.99809000       0.00087700      -0.00151900      -0.03994000
C        2.84055000       0.00000000      13.94760000      -0.00021200      -0.00014200      -0.11434800
C        0.00000000       0.00000000      10.05264000       0.00495500       0.00820300       0.04921600
C       -0.00002000       2.45999000      10.05264000       0.00557800      -0.00966100       0.04922000
C        2.13042000       1.22997000      10.05264000      -0.00958200      -0.00018900       0.04921600
C        3.55067000       1.22997000      10.05306000       0.00939500       0.00123200       0.03995400
C        1.42025000       0.00000000      10.05306000      -0.00453400       0.00785300       0.03995400
C        1.42030000       2.45995000      10.05306000      -0.00576400      -0.00752000       0.03995400
Li       0.71010000       1.23001000      11.94666000       0.00000300      -0.00000500      -0.53066500
13
Lattice="4.260799885 0.0 0.0 -2.130399942 3.689960941 0.0 0.0 0.0 24.0" Properties=species:S:1:pos:R:3:forces:R:3 stress="-0.015767855848118493 3.426588510109909e-06 -1.8724527377649773e-07 3.426588510109909e-06 -0.0157718129649043 3.2455847454592937e-07 -1.8724527377649773e-07 3.2455847454592937e-07 0.0038086624912508525" free_energy=-113.27493484 energy=-113.27406185 pbc="T T T"
C        0.00000000       0.00000000      13.95693000      -0.08548500      -0.14667800      -0.01825800
C       -0.00002000       2.45999000      13.95693000      -0.08527500       0.14770000      -0.01826800
C        2.13042000       1.22997000      13.95693000       0.16977000       0.00069300      -0.01825800
C        2.84053000       2.45999000      13.94162000       0.00024100       0.00008400       0.12126400
C        0.71010000       1.23001000      13.99600000       0.00089200      -0.00154600       0.05125500
C        2.84055000       0.00000000      13.94162000      -0.00019400      -0.00016700       0.12126400
C        0.00000000       0.00000000      10.05521000       0.00185500       0.00284300       0.01575000
C       -0.00002000       2.45999000      10.05521000       0.00247600      -0.00428900       0.01575100
C        2.13042000       1.22997000      10.05521000      -0.00338900      -0.00018500       0.01575000
C        3.55067000       1.22997000      10.05515000       0.00341300       0.00122400       0.03101000
C        1.42025000       0.00000000      10.05515000      -0.00154000       0.00266800       0.03101600
C        1.42030000       2.45995000      10.05515000      -0.00276700      -0.00234300       0.03101000
Li       0.71011000       1.23001000      11.91890000       0.00000300      -0.00000500      -0.37928700
13
Lattice="4.260799885 0.0 0.0 -2.130399942 3.689960941 0.0 0.0 0.0 24.0" Properties=species:S:1:pos:R:3:forces:R:3 stress="-0.01578626205853072 3.4640375648652083e-06 -1.8724527377649773e-07 3.4640375648652083e-06 -0.015790262865880412 3.3079998367181266e-07 -1.8724527377649773e-07 3.3079998367181266e-07 0.0040328013254704465" free_energy=-113.28372959 energy=-113.28295956 pbc="T T T"
C        0.00000000       0.00000000      13.95776000      -0.08528700      -0.14628300       0.01813400
C       -0.00002000       2.45999000      13.95776000      -0.08507300       0.14735100       0.01812900
C        2.13042000       1.22997000      13.95776000       0.16932800       0.00072000       0.01813400
C        2.84053000       2.45999000      13.94680000       0.00025500       0.00005900       0.06637300
C        0.71010000       1.23001000      13.99827000       0.00090500      -0.00156800      -0.07911900
C        2.84055000       0.00000000      13.94680000      -0.00017800      -0.00019100       0.06637300
C        0.00000000       0.00000000      10.05653000      -0.00129900      -0.00261500       0.02109400
C       -0.00002000       2.45999000      10.05653000      -0.00067900       0.00117600       0.02109200
C        2.13042000       1.22997000      10.05653000       0.00291400      -0.00018300       0.02109400
C        3.55067000       1.22997000      10.05717000      -0.00309400       0.00121900       0.01734600
C        1.42025000       0.00000000      10.05717000       0.00171500      -0.00297000       0.01735200
C        1.42030000       2.45995000      10.05717000       0.00049100       0.00328900       0.01734600
Li       0.71011000       1.23001000      11.89377000       0.00000300      -0.00000500      -0.22334900
13
Lattice="4.260799885 0.0 0.0 -2.130399942 3.689960941 0.0 0.0 0.0 24.0" Properties=species:S:1:pos:R:3:forces:R:3 stress="-0.01597855671319006 3.501486619620508e-06 -1.373132007694317e-07 3.501486619620508e-06 -0.015982594969594505 2.371773467835638e-07 -1.373132007694317e-07 2.371773467835638e-07 0.003797040801258458" free_energy=-113.29014948 energy=-113.28952321 pbc="T T T"
C        0.00000000       0.00000000      13.96200000      -0.09224700      -0.15827700       0.02273500
C       -0.00002000       2.45999000      13.96200000      -0.09203100       0.15940200       0.02275200
C        2.13042000       1.22997000      13.96200000       0.18319500       0.00075000       0.02273500
C        2.84053000       2.45999000      13.95947000       0.00027000       0.00002900      -0.03072900
C        0.71010000       1.23001000      13.98548000       0.00092100      -0.00159500       0.00482100
C        2.84055000       0.00000000      13.95947000      -0.00016000      -0.00021900      -0.03072900
C        0.00000000       0.00000000      10.06084000      -0.00969500      -0.01715700      -0.00801500
C       -0.00002000       2.45999000      10.06084000      -0.00907600       0.01572100      -0.00801900
C        2.13042000       1.22997000      10.06084000       0.01970600      -0.00018200      -0.00801500
C        3.55067000       1.22997000      10.06106000      -0.01967700       0.00121500      -0.00084000
C        1.42025000       0.00000000      10.06106000       0.01000500      -0.01733000      -0.00084300
C        1.42030000       2.45995000      10.06106000       0.00878600       0.01764800      -0.00084000
Li       0.71011000       1.23001000      11.84389000       0.00000300      -0.00000600       0.01498700
13
Lattice="4.260799885 0.0 0.0 -2.130399942 3.689960941 0.0 0.0 0.0 24.0" Properties=species:S:1:pos:R:3:forces:R:3 stress="-0.01596677898546952 3.501486619620508e-06 -1.373132007694317e-07 3.501486619620508e-06 -0.01597081724187396 2.371773467835638e-07 -1.373132007694317e-07 2.371773467835638e-07 0.0038552366323481935" free_energy=-113.29029657 energy=-113.28966555 pbc="T T T"
C        0.00000000       0.00000000      13.96253000      -0.09165300      -0.15725200       0.00295400
C       -0.00002000       2.45999000      13.96253000      -0.09143800       0.15837500       0.00296200
C        2.13042000       1.22997000      13.96253000       0.18201100       0.00074800       0.00295400
C        2.84053000       2.45999000      13.95747000       0.00026900       0.00003000      -0.00104000
C        0.71010000       1.23001000      13.98703000       0.00092100      -0.00159400       0.00968700
C        2.84055000       0.00000000      13.95747000      -0.00016100      -0.00021800      -0.00104000
C        0.00000000       0.00000000      10.06018000      -0.00867100      -0.01538200      -0.00120700
C       -0.00002000       2.45999000      10.06018000      -0.00805200       0.01394700      -0.00120900
C        2.13042000       1.22997000      10.06018000       0.01765600      -0.00018200      -0.00120700
C        3.55067000       1.22997000      10.06080000      -0.01781400       0.00121500      -0.00441000
C        1.42025000       0.00000000      10.06080000       0.00907400      -0.01571700      -0.00441300
C        1.42030000       2.45995000      10.06080000       0.00785400       0.01603500      -0.00441000
Li       0.71011000       1.23001000      11.84749000       0.00000300      -0.00000600       0.00037900
