13
Lattice="4.260799885 0.0 0.0 -2.130399942 3.689960941 0.0 0.0 0.0 24.0" Properties=species:S:1:pos:R:3:forces:R:3 stress="-0.014457519663739683 3.470279073991091e-06 -1.373132007694317e-07 3.470279073991091e-06 -0.014461532954107627 2.3093583765768057e-07 -1.373132007694317e-07 2.3093583765768057e-07 -0.007794889675623958" free_energy=-112.96876967 energy=-112.96787488 pbc="T T T"
C        0.00000000       0.00000000      13.80000000      -0.10248000      -0.17621000       0.05780900
C       -0.00002000       2.45999000      13.80000000      -0.10227400       0.17714300       0.05784200
C        2.13042000       1.22997000      13.80000000       0.20384200       0.00064500       0.05780900
C        2.84053000       2.45999000      13.80000000       0.00022100       0.00012600      -0.01080800
C        0.71010000       1.23001000      13.80000000       0.00086300      -0.00149500       2.18236000
C        2.84055000       0.00000000      13.80000000      -0.00022000      -0.00012900      -0.01080800
C        0.00000000       0.00000000      10.20000000      -0.00948000      -0.01684200      -0.05927500
C       -0.00002000       2.45999000      10.20000000      -0.00885400       0.01533600      -0.05927300
C        2.13042000       1.22997000      10.20000000       0.01932600      -0.00021100      -0.05927500
C        3.55067000       1.22997000      10.20000000      -0.01878800       0.00125700      -0.04307100
C        1.42025000       0.00000000      10.20000000       0.00953100      -0.01650700      -0.04305500
C        1.42030000       2.45995000      10.20000000       0.00830600       0.01689900      -0.04307100
Li       0.71010000       1.23001000      12.00000000       0.00000800      -0.00001300      -2.02718300
13
Lattice="4.260799885 0.0 0.0 -2.130399942 3.689960941 0.0 0.0 0.0 24.0" Properties=species:S:1:pos:R:3:forces:R:3 stress="-0.014832278596185092 3.4515545466134418e-06 -3.994565840565286e-07 3.4515545466134418e-06 -0.014836260679007408 6.928075129730417e-07 -3.994565840565286e-07 6.928075129730417e-07 -0.002477049002261911" free_energy=-113.15604327 energy=-113.15537383 pbc="T T T"
C        0.00000000       0.00000000      13.80279000      -0.06295000      -0.10757000       0.47061900
C       -0.00002000       2.45999000      13.80279000      -0.06272000       0.10863400       0.47055600
C        2.13042000       1.22997000      13.80279000       0.12463400       0.00073200       0.47061900
C        2.84053000       2.45999000      13.79948000       0.00025900       0.00004300      -0.08760800
C        0.71010000       1.23001000      13.90528000       0.00089600      -0.00155100      -0.43070700
C        2.84055000       0.00000000      13.79948000      -0.00016700      -0.00020200      -0.08760800
C        0.00000000       0.00000000      10.19714000      -0.02766400      -0.04827400      -0.09136200
C       -0.00002000       2.45999000      10.19714000      -0.02704400       0.04684100      -0.09136900
C        2.13042000       1.22997000      10.19714000       0.05563900      -0.00017900      -0.09136200
C        3.55067000       1.22997000      10.19792000      -0.05522100       0.00121900      -0.10899900
C        1.42025000       0.00000000      10.19792000       0.02777300      -0.04810400      -0.10897900
C        1.42030000       2.45995000      10.19792000       0.02655500       0.04843300      -0.10899900
Li       0.71011000       1.23001000      11.90220000       0.00001300      -0.00002200      -0.20480100
13
Lattice="4.260799885 0.0 0.0 -2.130399942 3.689960941 0.0 0.0 0.0 24.0" Properties=species:S:1:pos:R:3:forces:R:3 stress="-0.015215251354640165 3.4640375648652083e-06 -2.9335092891651315e-07 3.4640375648652083e-06 -0.015219252161989855 5.118037483224272e-07 -2.9335092891651315e-07 5.118037483224272e-07 -0.002863485798281847" free_energy=-113.17676012 energy=-113.1760975 pbc="T T T"
C        0.00000000       0.00000000      13.82256000      -0.08323300      -0.14270400       0.02631000
C       -0.00002000       2.45999000      13.82256000      -0.08300400       0.14376700       0.02628900
C        2.13042000       1.22997000      13.82256000       0.16520200       0.00073000       0.02631000
C        2.84053000       2.45999000      13.79580000       0.00025600       0.00004800       0.28744200
C        0.71010000       1.23001000      13.88718000       0.00090100      -0.00156100       0.13232300
C        2.84055000       0.00000000      13.79580000      -0.00017000      -0.00019800       0.28744200
C        0.00000000       0.00000000      10.19330000      -0.02858700      -0.04987500      -0.10315700
C       -0.00002000       2.45999000      10.19330000      -0.02796600       0.04843900      -0.10316100
C        2.13042000       1.22997000      10.19330000       0.05748600      -0.00018100      -0.10315700
C        3.55067000       1.22997000      10.19334000      -0.05667400       0.00122100      -0.08238000
C        1.42025000       0.00000000      10.19334000       0.02849700      -0.04935900      -0.08236900
C        1.42030000       2.45995000      10.19334000       0.02728000       0.04969200      -0.08238000
Li       0.71011000       1.23001000      11.89360000       0.00001100      -0.00002000      -0.22951100
13
Lattice="4.260799885 0.0 0.0 -2.130399942 3.689960941 0.0 0.0 0.0 24.0" Properties=species:S:1:pos:R:3:forces:R:3 stress="-0.015316613462844507 3.445313037487558e-06 -2.871094197906299e-07 3.445313037487558e-06 -0.01532059554566682 4.993207300706607e-07 -2.871094197906299e-07 4.993207300706607e-07 -0.0022246860637750734" free_energy=-113.18636125 energy=-113.1856997 pbc="T T T"
C        0.00000000       0.00000000      13.82502000      -0.08157300      -0.13982500       0.12201600
C       -0.00002000       2.45999000      13.82502000      -0.08134400       0.14089200       0.12200600
C        2.13042000       1.22997000      13.82502000       0.16187900       0.00073200       0.12201600
C        2.84053000       2.45999000      13.80745000       0.00025700       0.00004400       0.11277500
C        0.71010000       1.23001000      13.89142000       0.00090000      -0.00155900       0.02975100
C        2.84055000       0.00000000      13.80745000      -0.00016700      -0.00020100       0.11277500
C        0.00000000       0.00000000      10.18876000      -0.02992300      -0.05218500      -0.08109900
C       -0.00002000       2.45999000      10.18876000      -0.02930100       0.05075200      -0.08110200
C        2.13042000       1.22997000      10.18876000       0.06015500      -0.00017800      -0.08109900
C        3.55067000       1.22997000      10.18961000      -0.05989700       0.00122000      -0.08337000
C        1.42025000       0.00000000      10.18961000       0.03011100      -0.05215400      -0.08336500
C        1.42030000       2.45995000      10.18961000       0.02889200       0.05248200      -0.08337000
Li       0.71011000       1.23001000      11.88349000       0.00001100      -0.00001900      -0.12793400
13
Lattice="4.260799885 0.0 0.0 -2.130399942 3.689960941 0.0 0.0 0.0 24.0" Properties=species:S:1:pos:R:3:forces:R:3 stress="-0.015433429547644541 3.426588510109909e-06 -2.3093583765768057e-07 3.426588510109909e-06 -0.015437380422921223 3.9321507493064526e-07 -2.3093583765768057e-07 3.9321507493064526e-07 -0.0016135237316777103" free_energy=-113.20479687 energy=-113.20412138 pbc="T T T"
C        0.00000000       0.00000000      13.84232000      -0.08584900      -0.14724400       0.09345200
C       -0.00002000       2.45999000      13.84232000      -0.08562300       0.14830400       0.09346800
C        2.13042000       1.22997000      13.84232000       0.17044100       0.00072600       0.09345200
C        2.84053000       2.45999000      13.82595000       0.00025500       0.00004900       0.13108700
C        0.71010000       1.23001000      13.89598000       0.00089800      -0.00155500       0.04370900
C        2.84055000       0.00000000      13.82595000      -0.00017000      -0.00019700       0.13108700
C        0.00000000       0.00000000      10.17660000      -0.03174600      -0.05534100      -0.09942400
C       -0.00002000       2.45999000      10.17659000      -0.03112200       0.05390400      -0.09942100
C        2.13042000       1.22997000      10.17660000       0.06380000      -0.00017800      -0.09942400
C        3.55067000       1.22997000      10.17742000      -0.06362900       0.00122200      -0.10258800
C        1.42025000       0.00000000      10.17743000       0.03198000      -0.05539100      -0.10259500
C        1.42030000       2.45995000      10.17742000       0.03075600       0.05571600      -0.10258800
Li       0.71011000       1.23001000      11.86310000       0.00000900      -0.00001600       0.01978600
13
Lattice="4.260799885 0.0 0.0 -2.130399942 3.689960941 0.0 0.0 0.0 24.0" Properties=species:S:1:pos:R:3:forces:R:3 stress="-0.01511314650684984 3.4141054918581424e-06 -3.2455847454592937e-07 3.4141054918581424e-06 -0.015117091140617399 5.617358213294933e-07 -3.2455847454592937e-07 5.617358213294933e-07 -0.002980489128355655" free_energy=-113.16294451 energy=-113.16224779 pbc="T T T"
C        0.00000000       0.00000000      13.81004000      -0.07913100      -0.13560900       0.11835500
C       -0.00002000       2.45999000      13.81003000      -0.07889900       0.13665700       0.11835400
C        2.13042000       1.22997000      13.81004000       0.15700600       0.00072500       0.11835500
C        2.84053000       2.45999000      13.78720000       0.00025000       0.00005300       0.25611400
C        0.71010000       1.23001000      13.88474000       0.00089700      -0.00155300      -0.01836300
C        2.84055000       0.00000000      13.78720000      -0.00017100      -0.00019000       0.25611400
C        0.00000000       0.00000000      10.20373000      -0.03388100      -0.05903800      -0.12026100
C       -0.00002000       2.45999000      10.20372000      -0.03326200       0.05761100      -0.12026400
C        2.13042000       1.22997000      10.20373000       0.06806900      -0.00017700      -0.12026100
C        3.55067000       1.22997000      10.20498000      -0.06796800       0.00121600      -0.13126700
C        1.42025000       0.00000000      10.20499000       0.03414600      -0.05914300      -0.13126400
C        1.42030000       2.45995000      10.20498000       0.03293100       0.05947000      -0.13126700
Li       0.71010000       1.23001000      11.88463000       0.00001300      -0.00002200      -0.09434500
13
Lattice="4.260799885 0.0 0.0 -2.130399942 3.689960941 0.0 0.0 0.0 24.0" Properties=species:S:1:pos:R:3:forces:R:3 stress="-0.015498235136898584 3.457796055739325e-06 -1.7476225552473123e-07 3.457796055739325e-06 -0.015502229702739151 3.058339471682796e-07 -1.7476225552473123e-07 3.058339471682796e-07 -0.00048512753831840214" free_energy=-113.24326592 energy=-113.24262444 pbc="T T T"
C        0.00000000       0.00000000      13.87187000      -0.08899200      -0.15267000       0.03937100
C       -0.00002000       2.45999000      13.87187000      -0.08876900       0.15375200       0.03936700
C        2.13042000       1.22997000      13.87187000       0.17671200       0.00073400       0.03937100
C        2.84053000       2.45999000      13.85712000       0.00026100       0.00004400       0.15503400
C        0.71010000       1.23001000      13.91320000       0.00090500      -0.00156700       0.08215300
C        2.84055000       0.00000000      13.85712000      -0.00016900      -0.00020400       0.15503400
C        0.00000000       0.00000000      10.14954000      -0.02596400      -0.04533300      -0.08818600
C       -0.00002000       2.45999000      10.14954000      -0.02533800       0.04388600      -0.08818000
C        2.13042000       1.22997000      10.14954000       0.05224200      -0.00018100      -0.08818600
C        3.55067000       1.22997000      10.15031000      -0.05222500       0.00122300      -0.09220300
C        1.42025000       0.00000000      10.15031000       0.02627800      -0.04551500      -0.09220900
C        1.42030000       2.45995000      10.15031000       0.02505300       0.04584000      -0.09220300
Li       0.71011000       1.23000000      11.85738000       0.00000600      -0.00001100       0.03083800
13
Lattice="4.260799885 0.0 0.0 -2.130399942 3.689960941 0.0 0.0 0.0 24.0" Properties=species:S:1:pos:R:3:forces:R:3 stress="-0.014944301201976448 3.470279073991091e-06 -1.0610565514001541e-07 3.470279073991091e-06 -0.014948308250835263 1.810037646506145e-07 -1.0610565514001541e-07 1.810037646506145e-07 0.001502674529602024" free_energy=-113.27694052 energy=-113.2763224 pbc="T T T"
C        0.00000000       0.00000000      13.91202000      -0.09253900      -0.15880200       0.03982400
C       -0.00002000       2.45999000      13.91202000      -0.09232300       0.15990900       0.03982000
C        2.13042000       1.22997000      13.91202000       0.18379700       0.00074000       0.03982400
C        2.84053000       2.45999000      13.90747000       0.00026700       0.00003900       0.03482600
C        0.71010000       1.23001000      13.93912000       0.00090500      -0.00156800       0.09971900
C        2.84055000       0.00000000      13.90747000      -0.00016700      -0.00021200       0.03482600
C        0.00000000       0.00000000      10.11059000      -0.01955700      -0.03423800      -0.06216600
C       -0.00002000       2.45999000      10.11059000      -0.01892900       0.03278500      -0.06216000
C        2.13042000       1.22997000      10.11059000       0.03942900      -0.00018200      -0.06216600
C        3.55067000       1.22997000      10.11107000      -0.03941100       0.00122000      -0.05872700
C        1.42025000       0.00000000      10.11107000       0.01987700      -0.03442800      -0.05872900
C        1.42030000       2.45995000      10.11107000       0.01864900       0.03474100      -0.05872700
Li       0.71011000       1.22999000      11.84488000       0.00000200      -0.00000400       0.07383600
13
Lattice="4.260799885 0.0 0.0 -2.130399942 3.689960941 0.0 0.0 0.0 24.0" Properties=species:S:1:pos:R:3:forces:R:3 stress="-0.01533662374110209 3.482762092242858e-06 -8.738112776236562e-08 3.482762092242858e-06 -0.015340643272979161 1.5603772814708145e-07 -8.738112776236562e-08 1.5603772814708145e-07 0.00217632685106773" free_energy=-113.28474066 energy=-113.28412768 pbc="T T T"
C        0.00000000       0.00000000      13.92953000      -0.09268800      -0.15905400       0.04416400
C       -0.00002000       2.45999000      13.92953000      -0.09247200       0.16016700       0.04416000
C        2.13042000       1.22997000      13.92953000       0.18408900       0.00074400       0.04416400
C        2.84053000       2.45999000      13.92644000       0.00027000       0.00003700      -0.01271100
C        0.71010000       1.23001000      13.95432000       0.00091100      -0.00157900       0.06976500
C        2.84055000       0.00000000      13.92644000      -0.00016700      -0.00021500      -0.01271100
C        0.00000000       0.00000000      10.09296000      -0.01593300      -0.02795700      -0.03614800
C       -0.00002000       2.45999000      10.09297000      -0.01530300       0.02650600      -0.03614300
C        2.13042000       1.22997000      10.09296000       0.03217800      -0.00018000      -0.03614800
C        3.55067000       1.22997000      10.09364000      -0.03230600       0.00122000      -0.03845100
C        1.42025000       0.00000000      10.09364000       0.01632500      -0.02827600      -0.03845100
C        1.42030000       2.45995000      10.09364000       0.01509700       0.02858800      -0.03845100
Li       0.71012000       1.22999000      11.84440000       0.00000100      -0.00000100       0.04696200
13
Lattice="4.260799885 0.0 0.0 -2.130399942 3.689960941 0.0 0.0 0.0 24.0" Properties=species:S:1:pos:R:3:forces:R:3 stress="-0.015130803736166966 3.495245110494625e-06 -8.113961863648234e-08 3.495245110494625e-06 -0.01513484199257141 1.373132007694317e-07 -8.113961863648234e-08 1.373132007694317e-07 0.0030967684433708597" free_energy=-113.28765404 energy=-113.28703739 pbc="T T T"
C        0.00000000       0.00000000      13.94426000      -0.09255600      -0.15882600      -0.00969100
C       -0.00002000       2.45999000      13.94426000      -0.09234300       0.15994200      -0.00969300
C        2.13042000       1.22997000      13.94426000       0.18382500       0.00074300      -0.00969100
C        2.84053000       2.45999000      13.93769000       0.00027000       0.00003500       0.03135100
C        0.71010000       1.23001000      13.96746000       0.00091300      -0.00158100       0.05892000
C        2.84055000       0.00000000      13.93769000      -0.00016500      -0.00021700       0.03135100
C        0.00000000       0.00000000      10.07958000      -0.01280900      -0.02254000      -0.02008300
C       -0.00002000       2.45999000      10.07958000      -0.01217600       0.02109000      -0.02008300
C        2.13042000       1.22997000      10.07958000       0.02592500      -0.00017700      -0.02008300
C        3.55067000       1.22997000      10.08008000      -0.02599500       0.00122300      -0.01872500
C        1.42025000       0.00000000      10.08008000       0.01317200      -0.02281500      -0.01872400
C        1.42030000       2.45995000      10.08008000       0.01193800       0.02312400      -0.01872500
Li       0.71012000       1.22999000      11.84541000       0.00000000      -0.00000100       0.02387800
13
Lattice="4.260799885 0.0 0.0 -2.130399942 3.689960941 0.0 0.0 0.0 24.0" Properties=species:S:1:pos:R:3:forces:R:3 stress="-0.015225630984316509 3.495245110494625e-06 -8.738112776236562e-08 3.495245110494625e-06 -0.01522966299921183 1.497962190211982e-07 -8.738112776236562e-08 1.497962190211982e-07 0.0031489849087179994" free_energy=-113.28775174 energy=-113.28713586 pbc="T T T"
C        0.00000000       0.00000000      13.94294000      -0.09162700      -0.15721600       0.02505000
C       -0.00002000       2.45999000      13.94294000      -0.09141400       0.15833400       0.02504700
C        2.13042000       1.22997000      13.94294000       0.18196700       0.00074400       0.02505000
C        2.84053000       2.45999000      13.93826000       0.00027100       0.00003400      -0.00505800
C        0.71010000       1.23001000      13.96942000       0.00091400      -0.00158200       0.01929900
C        2.84055000       0.00000000      13.93826000      -0.00016500      -0.00021800      -0.00505800
C        0.00000000       0.00000000      10.07949000      -0.01256300      -0.02211400      -0.01784400
C       -0.00002000       2.45999000      10.07949000      -0.01193100       0.02066400      -0.01784300
C        2.13042000       1.22997000      10.07949000       0.02543300      -0.00017700      -0.01784400
C        3.55067000       1.22997000      10.08006000      -0.02554100       0.00122300      -0.01829500
C        1.42025000       0.00000000      10.08006000       0.01294600      -0.02242200      -0.01829500
C        1.42030000       2.45995000      10.08006000       0.01171100       0.02273100      -0.01829500
Li       0.71012000       1.22999000      11.84657000       0.00000000      -0.00000100       0.02408500
13
Lattice="4.260799885 0.0 0.0 -2.130399942 3.689960941 0.0 0.0 0.0 24.0" Properties=species:S:1:pos:R:3:forces:R:3 stress="-0.015224925693785283 3.495245110494625e-06 -8.738112776236562e-08 3.495245110494625e-06 -0.015228957708680605 1.497962190211982e-07 -8.738112776236562e-08 1.497962190211982e-07 0.003198923223234191" free_energy=-113.28795659 energy=-113.28733976 pbc="T T T"
C        0.00000000       0.00000000      13.94405000      -0.09162200      -0.15720500       0.01519000
C       -0.00002000       2.45999000      13.94405000      -0.09140800       0.15832300       0.01518800
C        2.13042000       1.22997000      13.94405000       0.18195500       0.00074400       0.01519000
C        2.84053000       2.45999000      13.93833000       0.00027100       0.00003400       0.00946300
C        0.71010000       1.23001000      13.97034000       0.00091400      -0.00158300       0.02615300
C        2.84055000       0.00000000      13.93833000      -0.00016500      -0.00021800       0.00946300
C        0.00000000       0.00000000      10.07863000      -0.01223800      -0.02155000      -0.01833800
C       -0.00002000       2.45999000      10.07863000      -0.01160500       0.02010100      -0.01833700
C        2.13042000       1.22997000      10.07863000       0.02478200      -0.00017700      -0.01833800
C        3.55067000       1.22997000      10.07918000      -0.02487500       0.00122300      -0.01837900
C        1.42025000       0.00000000      10.07918000       0.01261200      -0.02184500      -0.01838000
C        1.42030000       2.45995000      10.07918000       0.01137800       0.02215400      -0.01837900
Li       0.71012000       1.22999000      11.84742000       0.00000000      -0.00000100       0.01950300
13
Lattice="4.260799885 0.0 0.0 -2.130399942 3.689960941 0.0 0.0 0.0 24.0" Properties=species:S:1:pos:R:3:forces:R:3 stress="-0.015241453209950623 3.495245110494625e-06 -9.362263688824886e-08 3.495245110494625e-06 -0.015245491466355069 1.6227923727296468e-07 -9.362263688824886e-08 1.6227923727296468e-07 0.0032782340796967896" free_energy=-113.2884771 energy=-113.28785758 pbc="T T T"
C        0.00000000       0.00000000      13.94622000      -0.09098700      -0.15610400       0.00848900
C       -0.00002000       2.45999000      13.94622000      -0.09077200       0.15722200       0.00848800
C        2.13042000       1.22997000      13.94622000       0.18068400       0.00074500       0.00848900
C        2.84053000       2.45999000      13.93953000       0.00027000       0.00003400       0.02475900
C        0.71010000       1.23001000      13.97401000       0.00091500      -0.00158400       0.01846700
C        2.84055000       0.00000000      13.93953000      -0.00016500      -0.00021700       0.02475900
C        0.00000000       0.00000000      10.07606000      -0.01122900      -0.01980200      -0.01705600
C       -0.00002000       2.45999000      10.07606000      -0.01059700       0.01835500      -0.01705500
C        2.13042000       1.22997000      10.07606000       0.02276400      -0.00017700      -0.01705600
C        3.55067000       1.22997000      10.07661000      -0.02285300       0.00122200      -0.01692400
C        1.42025000       0.00000000      10.07660000       0.01160200      -0.02009500      -0.01692200
C        1.42030000       2.45995000      10.07661000       0.01036800       0.02040300      -0.01692400
Li       0.71012000       1.22999000      11.85027000       0.00000000      -0.00000100       0.00848700
13
Lattice="4.260799885 0.0 0.0 -2.130399942 3.689960941 0.0 0.0 0.0 24.0" Properties=species:S:1:pos:R:3:forces:R:3 stress="-0.015582245849732975 3.501486619620508e-06 -9.362263688824886e-08 3.501486619620508e-06 -0.015586290347646546 1.6227923727296468e-07 -9.362263688824886e-08 1.6227923727296468e-07 0.003384033900889637" free_energy=-113.28880826 energy=-113.28818667 pbc="T T T"
C        0.00000000       0.00000000      13.94743000      -0.09063800      -0.15549800       0.01169400
C       -0.00002000       2.45999000      13.94743000      -0.09042300       0.15661600       0.01169500
C        2.13042000       1.22997000      13.94743000       0.17998500       0.00074500       0.01169400
C        2.84053000       2.45999000      13.94142000       0.00027100       0.00003400       0.01762400
C        0.71010000       1.23001000      13.97617000       0.00091600      -0.00158600      -0.00204900
C        2.84055000       0.00000000      13.94142000      -0.00016500      -0.00021800       0.01762400
C        0.00000000       0.00000000      10.07418000      -0.01050000      -0.01853800      -0.00648700
C       -0.00002000       2.45999000      10.07418000      -0.00986700       0.01709000      -0.00648600
C        2.13042000       1.22997000      10.07418000       0.02130500      -0.00017600      -0.00648700
C        3.55067000       1.22997000      10.07473000      -0.02151100       0.00122400      -0.01610900
C        1.42025000       0.00000000      10.07473000       0.01093100      -0.01893300      -0.01610900
C        1.42030000       2.45995000      10.07473000       0.00969600       0.01924100      -0.01610900
Li       0.71012000       1.22999000      11.85196000       0.00000000      -0.00000100      -0.00049600
13
Lattice="4.260799885 0.0 0.0 -2.130399942 3.689960941 0.0 0.0 0.0 24.0" Properties=species:S:1:pos:R:3:forces:R:3 stress="-0.015612379855792738 3.501486619620508e-06 -9.362263688824886e-08 3.501486619620508e-06 -0.015616424353706311 1.5603772814708145e-07 -9.362263688824886e-08 1.5603772814708145e-07 0.0032287888444015424" free_energy=-113.28870199 energy=-113.28808274 pbc="T T T"
C        0.00000000       0.00000000      13.94738000      -0.09157800      -0.15712600       0.00706000
C       -0.00002000       2.45999000      13.94738000      -0.09136300       0.15824500       0.00706000
C        2.13042000       1.22997000      13.94738000       0.18186400       0.00074600       0.00706000
C        2.84053000       2.45999000      13.94198000       0.00027200       0.00003300       0.01609100
C        0.71010000       1.23001000      13.97352000       0.00091500      -0.00158500       0.03506400
C        2.84055000       0.00000000      13.94198000      -0.00016400      -0.00021900       0.01609100
C        0.00000000       0.00000000      10.07530000      -0.01113400      -0.01963700      -0.02999200
C       -0.00002000       2.45999000      10.07530000      -0.01050100       0.01818800      -0.02999300
C        2.13042000       1.22997000      10.07530000       0.02257300      -0.00017600      -0.02999200
C        3.55067000       1.22997000      10.07477000      -0.02217100       0.00122400      -0.00109500
C        1.42025000       0.00000000      10.07477000       0.01126100      -0.01950400      -0.00109500
C        1.42030000       2.45995000      10.07477000       0.01002600       0.01981300      -0.00109500
Li       0.71012000       1.22999000      11.85017000       0.00000000      -0.00000100       0.00483700
13
Lattice="4.260799885 0.0 0.0 -2.130399942 3.689960941 0.0 0.0 0.0 24.0" Properties=species:S:1:pos:R:3:forces:R:3 stress="-0.015603423290197097 3.507728128746391e-06 -8.738112776236562e-08 3.507728128746391e-06 -0.015607467788110669 1.5603772814708145e-07 -8.738112776236562e-08 1.5603772814708145e-07 0.003432680223016771" free_energy=-113.289061 energy=-113.28843945 pbc="T T T"
C        0.00000000       0.00000000      13.94966000      -0.09184400      -0.15758700       0.01478200
C       -0.00002000       2.45999000      13.94966000      -0.09163000       0.15870700       0.01478200
C        2.13042000       1.22997000      13.94966000       0.18239700       0.00074600       0.01478200
C        2.84053000       2.45999000      13.94542000       0.00027300       0.00003300      -0.00457600
C        0.71010000       1.23001000      13.97488000       0.00091600      -0.00158700       0.03945300
C        2.84055000       0.00000000      13.94542000      -0.00016500      -0.00022000      -0.00457600
C        0.00000000       0.00000000      10.07275000      -0.01049300      -0.01852600      -0.02759600
C       -0.00002000       2.45999000      10.07275000      -0.00986000       0.01707700      -0.02759700
C        2.13042000       1.22997000      10.07275000       0.02129000      -0.00017600      -0.02759600
C        3.55067000       1.22997000      10.07207000      -0.02084000       0.00122400       0.00485500
C        1.42025000       0.00000000      10.07207000       0.01059600      -0.01835300       0.00485500
C        1.42030000       2.45995000      10.07207000       0.00936000       0.01866000       0.00485500
Li       0.71012000       1.22999000      11.85082000       0.00000000      -0.00000000      -0.00642300
13
Lattice="4.260799885 0.0 0.0 -2.130399942 3.689960941 0.0 0.0 0.0 24.0" Properties=species:S:1:pos:R:3:forces:R:3 stress="-0.015578045314091255 3.501486619620508e-06 -9.362263688824886e-08 3.501486619620508e-06 -0.015582089812004828 1.6227923727296468e-07 -9.362263688824886e-08 1.6227923727296468e-07 0.003533773946328702" free_energy=-113.28908085 energy=-113.28845773 pbc="T T T"
C        0.00000000       0.00000000      13.94954000      -0.09104500      -0.15620400       0.00915500
C       -0.00002000       2.45999000      13.94954000      -0.09083000       0.15732200       0.00915600
C        2.13042000       1.22997000      13.94954000       0.18079900       0.00074600       0.00915500
C        2.84053000       2.45999000      13.94379000       0.00027200       0.00003400       0.01911900
C        0.71010000       1.23001000      13.97691000       0.00091600      -0.00158700       0.00990700
C        2.84055000       0.00000000      13.94379000      -0.00016500      -0.00021900       0.01911900
C        0.00000000       0.00000000      10.07241000      -0.01020600      -0.01802900      -0.01623400
C       -0.00002000       2.45999000      10.07241000      -0.00957300       0.01658100      -0.01623400
C        2.13042000       1.22997000      10.07241000       0.02071700      -0.00017600      -0.01623400
C        3.55067000       1.22997000      10.07261000      -0.02066200       0.00122400      -0.00700000
C        1.42025000       0.00000000      10.07261000       0.01050700      -0.01819800      -0.00700000
C        1.42030000       2.45995000      10.07261000       0.00927100       0.01850600      -0.00700000
Li       0.71012000       1.22999000      11.85182000       0.00000000      -0.00000100      -0.00590900
13