13
Lattice="4.260799885 0.0 0.0 -2.130399942 3.689960941 0.0 0.0 0.0 24.0" Properties=species:S:1:pos:R:3:forces:R:3 stress="-0.014850703531124701 3.4141054918581424e-06 -8.738112776236562e-08 3.4141054918581424e-06 -0.014854648164892258 1.497962190211982e-07 -8.738112776236562e-08 1.497962190211982e-07 -0.0013160409237198626" free_energy=-113.15160913 energy=-113.15060561 pbc="T T T"
C        0.00000000       0.00000000      13.90000000      -0.09767800      -0.16792600      -0.01236200
C       -0.00002000       2.45999000      13.90000000      -0.09748400       0.16884700      -0.01233300
C        2.13042000       1.22997000      13.90000000       0.19426700       0.00062900      -0.01236200
C        2.84053000       2.45999000      13.90000000       0.00021300       0.00014500      -0.03292400
C        0.71010000       1.23001000      13.90000000       0.00085400      -0.00147900       1.32786600
C        2.84055000       0.00000000      13.90000000      -0.00023200      -0.00011300      -0.03292400
C        0.00000000       0.00000000      10.10000000       0.00417200       0.00679600       0.01638400
C       -0.00002000       2.45999000      10.10000000       0.00479500      -0.00830500       0.01640000
C        2.13042000       1.22997000      10.10000000      -0.00797100      -0.00021500       0.01638400
C        3.55067000       1.22997000      10.10000000       0.00780000       0.00124900       0.02676300
C        1.42025000       0.00000000      10.10000000      -0.00375700       0.00650700       0.02675900
C        1.42030000       2.45995000      10.10000000      -0.00498200      -0.00613100       0.02676300
Li       0.71010000       1.23001000      12.00000000       0.00000200      -0.00000400      -1.35441600
13
Lattice="4.260799885 0.0 0.0 -2.130399942 3.689960941 0.0 0.0 0.0 24.0" Properties=species:S:1:pos:R:3:forces:R:3 stress="-0.015005705168756886 3.4640375648652083e-06 -2.621433832870969e-07 3.4640375648652083e-06 -0.01500970597610658 4.4938865706359457e-07 -2.621433832870969e-07 4.4938865706359457e-07 0.0015394182938260985" free_energy=-113.24679391 energy=-113.24598986 pbc="T T T"
C        0.00000000       0.00000000      13.89940000      -0.07725800      -0.13242800       0.26802300
C       -0.00002000       2.45999000      13.89941000      -0.07704500       0.13344600       0.26798500
C        2.13042000       1.22997000      13.89940000       0.15331500       0.00069300       0.26802300
C        2.84053000       2.45999000      13.89841000       0.00023900       0.00008500      -0.10327300
C        0.71010000       1.23001000      13.96406000       0.00088700      -0.00153600      -0.10637900
C        2.84055000       0.00000000      13.89841000      -0.00019300      -0.00016500      -0.10327300
C        0.00000000       0.00000000      10.10079000      -0.00241200      -0.00456900       0.00021300
C       -0.00002000       2.45999000      10.10079000      -0.00179100       0.00310200       0.00021000
C        2.13042000       1.22997000      10.10079000       0.00516300      -0.00019600       0.00021300
C        3.55067000       1.22997000      10.10129000      -0.00526600       0.00123100       0.00113200
C        1.42025000       0.00000000      10.10129000       0.00278800      -0.00483000       0.00114100
C        1.42030000       2.45995000      10.10129000       0.00156600       0.00517600       0.00113200
Li       0.71011000       1.23001000      11.93466000       0.00000500      -0.00000800      -0.49514900
13
Lattice="4.260799885 0.0 0.0 -2.130399942 3.689960941 0.0 0.0 0.0 24.0" Properties=species:S:1:pos:R:3:forces:R:3 stress="-0.014931930530888947 3.495245110494625e-06 -2.1845281940591405e-07 3.495245110494625e-06 -0.014935962545784266 3.7449054755299545e-07 -2.1845281940591405e-07 3.7449054755299545e-07 0.0017350958464316644" free_energy=-113.26835756 energy=-113.26764063 pbc="T T T"
C        0.00000000       0.00000000      13.91247000      -0.08494600      -0.14569300      -0.02051800
C       -0.00002000       2.45999000      13.91247000      -0.08472900       0.14675400      -0.02053300
C        2.13042000       1.22997000      13.91247000       0.16864700       0.00071800      -0.02051800
C        2.84053000       2.45999000      13.89338000       0.00025100       0.00006200       0.18237200
C        0.71010000       1.23001000      13.95887000       0.00090200      -0.00156200       0.07216600
C        2.84055000       0.00000000      13.89338000      -0.00017900      -0.00018600       0.18237200
C        0.00000000       0.00000000      10.10080000      -0.00550600      -0.00992100      -0.00509500
C       -0.00002000       2.45999000      10.10080000      -0.00488600       0.00846300      -0.00509700
C        2.13042000       1.22997000      10.10080000       0.01134500      -0.00019200      -0.00509500
C        3.55067000       1.22997000      10.10135000      -0.01144000       0.00122600      -0.00235000
C        1.42025000       0.00000000      10.10135000       0.00587900      -0.01018200      -0.00234400
C        1.42030000       2.45995000      10.10135000       0.00465800       0.01052100      -0.00235000
Li       0.71011000       1.23001000      11.91051000       0.00000500      -0.00000800      -0.35301000
13
Lattice="4.260799885 0.0 0.0 -2.130399942 3.689960941 0.0 0.0 0.0 24.0" Properties=species:S:1:pos:R:3:forces:R:3 stress="-0.015010554821347699 3.501486619620508e-06 -2.1845281940591405e-07 3.501486619620508e-06 -0.015014593077752145 3.8073205667887874e-07 -2.1845281940591405e-07 3.8073205667887874e-07 0.001980961373918458" free_energy=-113.27583919 energy=-113.27517505 pbc="T T T"
C        0.00000000       0.00000000      13.91334000      -0.08422200      -0.14440700       0.05211200
C       -0.00002000       2.45999000      13.91334000      -0.08400300       0.14549700       0.05210000
C        2.13042000       1.22997000      13.91334000       0.16717100       0.00073500       0.05211200
C        2.84053000       2.45999000      13.90098000       0.00025800       0.00004600       0.09106200
C        0.71010000       1.23001000      13.96144000       0.00091000      -0.00157500      -0.04697400
C        2.84055000       0.00000000      13.90098000      -0.00016900      -0.00020000       0.09106200
C        0.00000000       0.00000000      10.10057000      -0.00880700      -0.01563100      -0.01539000
C       -0.00002000       2.45999000      10.10057000      -0.00818800       0.01418100      -0.01538600
C        2.13042000       1.22997000      10.10057000       0.01794100      -0.00018800      -0.01539000
C        3.55067000       1.22997000      10.10125000      -0.01806600       0.00122100      -0.01649400
C        1.42025000       0.00000000      10.10125000       0.00919400      -0.01592500      -0.01649100
C        1.42030000       2.45995000      10.10125000       0.00797500       0.01625600      -0.01649400
Li       0.71011000       1.23001000      11.89113000       0.00000500      -0.00000900      -0.19583000
13
Lattice="4.260799885 0.0 0.0 -2.130399942 3.689960941 0.0 0.0 0.0 24.0" Properties=species:S:1:pos:R:3:forces:R:3 stress="-0.015033061703255631 3.495245110494625e-06 -1.7476225552473123e-07 3.495245110494625e-06 -0.015037093718150952 2.995924380423964e-07 -1.7476225552473123e-07 2.995924380423964e-07 0.002115896559710928" free_energy=-113.28256286 energy=-113.28195149 pbc="T T T"
C        0.00000000       0.00000000      13.92125000      -0.08963600      -0.15376000       0.05520900
C       -0.00002000       2.45999000      13.92125000      -0.08941800       0.15487600       0.05523000
C        2.13042000       1.22997000      13.92125000       0.17797900       0.00074700       0.05520900
C        2.84053000       2.45999000      13.91477000       0.00026600       0.00003300       0.01747400
C        0.71010000       1.23001000      13.95562000       0.00091600      -0.00158700       0.01477100
C        2.84055000       0.00000000      13.91477000      -0.00016100      -0.00021400       0.01747400
C        0.00000000       0.00000000      10.09847000      -0.01414500      -0.02487000      -0.03326800
C       -0.00002000       2.45999000      10.09848000      -0.01352600       0.02342800      -0.03327700
C        2.13042000       1.22997000      10.09847000       0.02861100      -0.00018500      -0.03326800
C        3.55067000       1.22997000      10.09904000      -0.02868500       0.00121700      -0.03193900
C        1.42025000       0.00000000      10.09904000       0.01450600      -0.02512500      -0.03194200
C        1.42030000       2.45995000      10.09904000       0.01328800       0.02545000      -0.03193900
Li       0.71011000       1.23001000      11.85853000       0.00000500      -0.00000900      -0.01973400
13
Lattice="4.260799885 0.0 0.0 -2.130399942 3.689960941 0.0 0.0 0.0 24.0" Properties=species:S:1:pos:R:3:forces:R:3 stress="-0.015081926478202175 9.574474999104918e-06 -7.677056224836408e-07 9.574474999104918e-06 -0.015092980190864112 1.335682952939017e-06 -7.677056224836408e-07 1.335682952939017e-06 0.002126226257314265" free_energy=-113.2834653 energy=-113.2828538 pbc="T T T"
C        0.00000000       0.00000000      13.92409000      -0.09111000      -0.14911500       0.03707300
C       -0.00002000       2.45999000      13.92409000      -0.08554200       0.14816200       0.03662300
C        2.13042000       1.22997000      13.92409000       0.17469200       0.00434600       0.03707300
C        2.84053000       2.45999000      13.91663000       0.00126900      -0.00003500       0.03441200
C        0.71010000       1.23001000      13.95646000       0.00095700      -0.00165700       0.02581100
C        2.84055000       0.00000000      13.91663000      -0.00060400      -0.00111600       0.03441200
C        0.00000000       0.00000000      10.09681000      -0.01442900      -0.02550300      -0.02801100
C       -0.00002000       2.45999000      10.09681000      -0.01381100       0.02392100      -0.02801500
C        2.13042000       1.22997000      10.09681000       0.02930100      -0.00025600      -0.02801100
C        3.55067000       1.22997000      10.09745000      -0.02933500       0.00114700      -0.03853700
C        1.42025000       0.00000000      10.09745000       0.01489200      -0.02579300      -0.03853700
C        1.42030000       2.45995000      10.09745000       0.01367400       0.02597800      -0.03853700
Li       0.71011000       1.23001000      11.85524000       0.00004500      -0.00007900      -0.00575700
13
Lattice="4.260799885 0.0 0.0 -2.130399942 3.689960941 0.0 0.0 0.0 24.0" Properties=species:S:1:pos:R:3:forces:R:3 stress="-0.015059837777405674 3.4890036013687416e-06 -1.6227923727296468e-07 3.4890036013687416e-06 -0.015063863550791865 2.8086791066474663e-07 -1.6227923727296468e-07 2.8086791066474663e-07 0.002143171954591038" free_energy=-113.28355357 energy=-113.28294192 pbc="T T T"
C        0.00000000       0.00000000      13.92432000      -0.09017900      -0.14820900       0.03814800
C       -0.00002000       2.45999000      13.92431000      -0.08433800       0.14607700       0.03749600
C        2.13042000       1.22997000      13.92432000       0.17344200       0.00399200       0.03814800
C        2.84053000       2.45999000      13.91686000       0.00026600       0.00003300       0.03117600
C        0.71010000       1.23001000      13.95661000       0.00091600      -0.00158700       0.02752500
C        2.84055000       0.00000000      13.91686000      -0.00016100      -0.00021400       0.03117600
C        0.00000000       0.00000000      10.09664000      -0.01446900      -0.02543000      -0.02865100
C       -0.00002000       2.45999000      10.09664000      -0.01384900       0.02398800      -0.02865500
C        2.13042000       1.22997000      10.09664000       0.02925800      -0.00018500      -0.02865100
C        3.55067000       1.22997000      10.09722000      -0.02933800       0.00121800      -0.03756100
C        1.42025000       0.00000000      10.09722000       0.01483300      -0.02569100      -0.03756100
C        1.42030000       2.45995000      10.09722000       0.01361400       0.02601700      -0.03756100
Li       0.71011000       1.23001000      11.85512000       0.00000500      -0.00000800      -0.00502900
13
Lattice="4.260799885 0.0 0.0 -2.130399942 3.689960941 0.0 0.0 0.0 24.0" Properties=species:S:1:pos:R:3:forces:R:3 stress="-0.014898800600448757 3.1519621085710453e-06 -3.994565840565286e-07 3.1519621085710453e-06 -0.014902439400269146 6.865660038471585e-07 -3.994565840565286e-07 6.865660038471585e-07 0.002814015596950096" free_energy=-113.28554531 energy=-113.28492968 pbc="T T T"
C        0.00000000       0.00000000      13.93295000      -0.08943300      -0.15337800      -0.02078600
C       -0.00002000       2.45999000      13.93262000      -0.08908200       0.15429500      -0.01784800
C        2.13042000       1.22997000      13.93295000       0.17754600       0.00076300      -0.02078600
C        2.84053000       2.45999000      13.92173000       0.00010100       0.00000400       0.07763600
C        0.71010000       1.23001000      13.96614000       0.00088500      -0.00153200      -0.01185600
C        2.84055000       0.00000000      13.92173000      -0.00005400      -0.00008500       0.07763600
C        0.00000000       0.00000000      10.08957000      -0.01275100      -0.02251100      -0.02578400
C       -0.00002000       2.45999000      10.08957000      -0.01216900       0.02107800      -0.02584900
C        2.13042000       1.22997000      10.08957000       0.02587000      -0.00021200      -0.02578400
C        3.55067000       1.22997000      10.08911000      -0.02548000       0.00122600       0.00323500
C        1.42025000       0.00000000      10.08911000       0.01288100      -0.02231000       0.00326600
C        1.42030000       2.45995000      10.08911000       0.01167800       0.02267900       0.00323500
Li       0.71008000       1.23006000      11.85586000       0.00001000      -0.00001800      -0.01631500
13
Lattice="4.260799885 0.0 0.0 -2.130399942 3.689960941 0.0 0.0 0.0 24.0" Properties=species:S:1:pos:R:3:forces:R:3 stress="-0.015042648661272988 3.1706866359486954e-06 -4.805962026930109e-07 3.1706866359486954e-06 -0.015046312427129884 8.301207137424734e-07 -4.805962026930109e-07 8.301207137424734e-07 0.0029180553125694444" free_energy=-113.28610129 energy=-113.28548534 pbc="T T T"
C        0.00000000       0.00000000      13.93455000      -0.08974400      -0.15391300      -0.00632900
C       -0.00002000       2.45999000      13.93423000      -0.08940300       0.15485100      -0.00349100
C        2.13042000       1.22997000      13.93455000       0.17816400       0.00076400      -0.00632900
C        2.84053000       2.45999000      13.92503000       0.00011000       0.00000000       0.05826300
C        0.71010000       1.23001000      13.96686000       0.00089600      -0.00155200      -0.01607600
C        2.84055000       0.00000000      13.92503000      -0.00005500      -0.00009500       0.05826300
C        0.00000000       0.00000000      10.08732000      -0.01268400      -0.02241300      -0.01061900
C       -0.00002000       2.45999000      10.08731000      -0.01211900       0.02099100      -0.01068500
C        2.13042000       1.22997000      10.08732000       0.02575200      -0.00022100      -0.01061900
C        3.55067000       1.22997000      10.08818000      -0.02602800       0.00122300      -0.01733800
C        1.42025000       0.00000000      10.08818000       0.01314100      -0.02276000      -0.01729600
C        1.42030000       2.45995000      10.08818000       0.01195500       0.02315200      -0.01733800
Li       0.71006000       1.23009000      11.85328000       0.00001600      -0.00002700      -0.00040300
13
Lattice="4.260799885 0.0 0.0 -2.130399942 3.689960941 0.0 0.0 0.0 24.0" Properties=species:S:1:pos:R:3:forces:R:3 stress="-0.015097392937816112 3.02713192605338e-06 -8.176376954907069e-07 3.02713192605338e-06 -0.015100894424435731 1.4105810624496163e-06 -8.176376954907069e-07 1.4105810624496163e-06 0.003212904203676169" free_energy=-113.28767165 energy=-113.28705216 pbc="T T T"
C        0.00000000       0.00000000      13.94342000      -0.09012100      -0.15454000      -0.00404700
C       -0.00002000       2.45999000      13.94296000      -0.08973200       0.15542000      -0.00007900
C        2.13042000       1.22997000      13.94342000       0.17889600       0.00077700      -0.00404700
C        2.84053000       2.45999000      13.93410000       0.00003100      -0.00002500       0.04954800
C        0.71010000       1.23001000      13.97374000       0.00091400      -0.00158300      -0.00707800
C        2.84055000       0.00000000      13.93410000       0.00000600      -0.00003900       0.04954800
C        0.00000000       0.00000000      10.07915000      -0.01164800      -0.02068500      -0.01170400
C       -0.00002000       2.45999000      10.07914000      -0.01114100       0.01929600      -0.01179400
C        2.13042000       1.22997000      10.07915000       0.02373700      -0.00025500      -0.01170400
C        3.55067000       1.22997000      10.08005000      -0.02408100       0.00122000      -0.02091600
C        1.42025000       0.00000000      10.08006000       0.01212400      -0.02099900      -0.02084800
C        1.42030000       2.45995000      10.08005000       0.01098400       0.02146400      -0.02091600
Li       0.71001000       1.23018000      11.85065000       0.00003000      -0.00005100       0.01403700
13
Lattice="4.260799885 0.0 0.0 -2.130399942 3.689960941 0.0 0.0 0.0 24.0" Properties=species:S:1:pos:R:3:forces:R:3 stress="-0.014925657814217433 3.120754562941629e-06 -4.369056388118281e-07 3.120754562941629e-06 -0.014929259164983067 7.552226042318742e-07 -4.369056388118281e-07 7.552226042318742e-07 0.002816899174166254" free_energy=-113.2857796 energy=-113.28516481 pbc="T T T"
C        0.00000000       0.00000000      13.93275000      -0.09008600      -0.15450400      -0.00937300
C       -0.00002000       2.45999000      13.93237000      -0.08972300       0.15540500      -0.00594500
C        2.13042000       1.22997000      13.93275000       0.17884700       0.00076500      -0.00937300
C        2.84053000       2.45999000      13.92329000       0.00008700       0.00000000       0.05774600
C        0.71010000       1.23001000      13.96465000       0.00088100      -0.00152600      -0.01184000
C        2.84055000       0.00000000      13.92329000      -0.00004400      -0.00007500       0.05774600
C        0.00000000       0.00000000      10.08935000      -0.01324500      -0.02337700      -0.01181400
C       -0.00002000       2.45999000      10.08935000      -0.01266800       0.02194200      -0.01190100
C        2.13042000       1.22997000      10.08935000       0.02686700      -0.00021800      -0.01181400
C        3.55067000       1.22997000      10.09022000      -0.02713500       0.00122700      -0.01881900
C        1.42025000       0.00000000      10.09022000       0.01370300      -0.02373400      -0.01877000
C        1.42030000       2.45995000      10.09022000       0.01250500       0.02411400      -0.01881900
Li       0.71007000       1.23006000      11.85218000       0.00001200      -0.00002000       0.01297600
13
Lattice="4.260799885 0.0 0.0 -2.130399942 3.689960941 0.0 0.0 0.0 24.0" Properties=species:S:1:pos:R:3:forces:R:3 stress="-0.016016505088675425 3.020890416927497e-06 -1.6914489731143631e-06 3.020890416927497e-06 -0.016019994092276797 2.9335092891651313e-06 -1.6914489731143631e-06 2.9335092891651313e-06 0.004067797467139274" free_energy=-113.29063511 energy=-113.28999025 pbc="T T T"
C        0.00000000       0.00000000      13.97435000      -0.09076300      -0.15559000      -0.00910200
C       -0.00002000       2.45999000      13.97393000      -0.09038400       0.15654900      -0.00565600
C        2.13042000       1.22997000      13.97435000       0.18012600       0.00080800      -0.00910200
C        2.84053000       2.45999000      13.96615000       0.00000200      -0.00007700       0.04916800
C        0.71010000       1.23001000      13.99994000       0.00101900      -0.00176400      -0.06324200
C        2.84055000       0.00000000      13.96615000       0.00006600      -0.00004000       0.04916800
C        0.00000000       0.00000000      10.04956000      -0.00674400      -0.01237800      -0.00385200
C       -0.00002000       2.45999000      10.04951000      -0.00641500       0.01111100      -0.00381200
C        2.13042000       1.22997000      10.04956000       0.01409100      -0.00034800      -0.00385200
C        3.55067000       1.22997000      10.04979000      -0.01433600       0.00117700       0.00143100
C        1.42025000       0.00000000      10.04983000       0.00711800      -0.01232900       0.00145000
C        1.42030000       2.45995000      10.04979000       0.00614900       0.01300400       0.00143100
Li       0.70982000       1.23050000      11.84710000       0.00007200      -0.00012400      -0.00402700
13
Lattice="4.260799885 0.0 0.0 -2.130399942 3.689960941 0.0 0.0 0.0 24.0" Properties=species:S:1:pos:R:3:forces:R:3 stress="-0.01560357308641612 3.251826254585178e-06 -9.736754236377883e-07 3.251826254585178e-06 -0.015607330474909899 1.6914489731143631e-06 -9.736754236377883e-07 1.6914489731143631e-06 0.003596738290390612" free_energy=-113.28930272 energy=-113.28867953 pbc="T T T"
C        0.00000000       0.00000000      13.95112000      -0.09088000      -0.15585200       0.01442600
C       -0.00002000       2.45999000      13.95089000      -0.09058100       0.15689000       0.01640400
C        2.13042000       1.22997000      13.95112000       0.18041200       0.00077800       0.01442600
C        2.84053000       2.45999000      13.94528000       0.00013400      -0.00002600       0.01326500
C        0.71010000       1.23001000      13.97892000       0.00097000      -0.00168000      -0.00092400
C        2.84055000       0.00000000      13.94528000      -0.00004400      -0.00012900       0.01326500
C        0.00000000       0.00000000      10.07095000      -0.01013200      -0.01808700      -0.01280000
C       -0.00002000       2.45999000      10.07093000      -0.00966400       0.01673900      -0.01281700
C        2.13042000       1.22997000      10.07095000       0.02073000      -0.00026900      -0.01280000
C        3.55067000       1.22997000      10.07146000      -0.02096000       0.00120100      -0.01258300
C        1.42025000       0.00000000      10.07148000       0.01053000      -0.01823800      -0.01254200
C        1.42030000       2.45995000      10.07146000       0.00944000       0.01875300      -0.01258300
Li       0.70996000       1.23026000      11.85014000       0.00004700      -0.00008100       0.00526300
13
Lattice="4.260799885 0.0 0.0 -2.130399942 3.689960941 0.0 0.0 0.0 24.0" Properties=species:S:1:pos:R:3:forces:R:3 stress="-0.01567206740756356 3.3267243640957763e-06 -1.0048829692672046e-06 3.3267243640957763e-06 -0.015675912177185107 1.741381046121429e-06 -1.0048829692672046e-06 1.741381046121429e-06 0.003583568706134998" free_energy=-113.28975189 energy=-113.28912557 pbc="T T T"
C        0.00000000       0.00000000      13.95416000      -0.09115900      -0.15633600       0.01332400
C       -0.00002000       2.45999000      13.95402000      -0.09088700       0.15742100       0.01455700
C        2.13042000       1.22997000      13.95416000       0.18097000       0.00077800       0.01332400
C        2.84053000       2.45999000      13.94832000       0.00016500      -0.00002600       0.01059900
C        0.71010000       1.23001000      13.98079000       0.00098500      -0.00170500       0.00249900
C        2.84055000       0.00000000      13.94832000      -0.00005900      -0.00015600       0.01059900
C        0.00000000       0.00000000      10.06811000      -0.00960000      -0.01717400      -0.00670300
C       -0.00002000       2.45999000      10.06808000      -0.00914500       0.01583900      -0.00669000
C        2.13042000       1.22997000      10.06811000       0.01967400      -0.00027300      -0.00670300
C        3.55067000       1.22997000      10.06863000      -0.01991400       0.00119400      -0.01562300
C        1.42025000       0.00000000      10.06865000       0.00999700      -0.01731600      -0.01560200
C        1.42030000       2.45995000      10.06863000       0.00892300       0.01784400      -0.01562300
Li       0.70995000       1.23028000      11.85002000       0.00005100      -0.00008900       0.00204300
13
Lattice="4.260799885 0.0 0.0 -2.130399942 3.689960941 0.0 0.0 0.0 24.0" Properties=species:S:1:pos:R:3:forces:R:3 stress="-0.015728659170807943 3.395380964480493e-06 -9.923999510154382e-07 3.395380964480493e-06 -0.015732572597029874 1.722656518743779e-06 -9.923999510154382e-07 1.722656518743779e-06 0.003447522531718121" free_energy=-113.28990497 energy=-113.28927711 pbc="T T T"
C        0.00000000       0.00000000      13.95630000      -0.09141600      -0.15678800       0.00350200
C       -0.00002000       2.45999000      13.95623000      -0.09117100       0.15791200       0.00402200
C        2.13042000       1.22997000      13.95630000       0.18149100       0.00077500       0.00350200
C        2.84053000       2.45999000      13.95028000       0.00019700      -0.00002200       0.01155300
C        0.71010000       1.23001000      13.98193000       0.00099200      -0.00171900       0.00690700
C        2.84055000       0.00000000      13.95028000      -0.00008000      -0.00018200       0.01155300
C        0.00000000       0.00000000      10.06651000      -0.00934700      -0.01672900      -0.01405200
C       -0.00002000       2.45999000      10.06649000      -0.00889200       0.01540100      -0.01402800
C        2.13042000       1.22997000      10.06651000       0.01916100      -0.00027000      -0.01405200
C        3.55067000       1.22997000      10.06639000      -0.01913100       0.00118800       0.00291700
C        1.42025000       0.00000000      10.06641000       0.00960400      -0.01663500       0.00291700
C        1.42030000       2.45995000      10.06639000       0.00853600       0.01716200       0.00291700
Li       0.70994000       1.23029000      11.84999000       0.00005400      -0.00009400      -0.00765600
13
Lattice="4.260799885 0.0 0.0 -2.130399942 3.689960941 0.0 0.0 0.0 24.0" Properties=species:S:1:pos:R:3:forces:R:3 stress="-0.01599333660680015 3.4640375648652083e-06 -1.0298490057707376e-06 3.4640375648652083e-06 -0.01599733741414984 1.7850716100026118e-06 -1.0298490057707376e-06 1.7850716100026118e-06 0.003699074074018594" free_energy=-113.29019602 energy=-113.28956524 pbc="T T T"
C        0.00000000       0.00000000      13.96117000      -0.09166700      -0.15722300      -0.01085100
C       -0.00002000       2.45999000      13.96121000      -0.09144800       0.15839300      -0.01120000
C        2.13042000       1.22997000      13.96117000       0.18199200       0.00077400      -0.01085100
C        2.84053000       2.45999000      13.95540000       0.00023000      -0.00002000       0.02028100
C        0.71010000       1.23001000      13.98544000       0.00100400      -0.00174000       0.01723900
C        2.84055000       0.00000000      13.95540000      -0.00009700      -0.00021000       0.02028100
C        0.00000000       0.00000000      10.06186000      -0.00868800      -0.01559800      -0.00974600
C       -0.00002000       2.45999000      10.06183000      -0.00824900       0.01428800      -0.00972500
C        2.13042000       1.22997000      10.06186000       0.01785200      -0.00027400      -0.00974600
C        3.55067000       1.22997000      10.06180000      -0.01786700       0.00117500       0.00483500
C        1.42025000       0.00000000      10.06183000       0.00896100      -0.01552100       0.00482900
C        1.42030000       2.45995000      10.06180000       0.00791600       0.01606000       0.00483500
Li       0.70993000       1.23032000      11.84922000       0.00006100      -0.00010600      -0.01018000
13
Lattice="4.260799885 0.0 0.0 -2.130399942 3.689960941 0.0 0.0 0.0 24.0" Properties=species:S:1:pos:R:3:forces:R:3 stress="-0.015735693351592816 3.4078639827322583e-06 -9.86158441889555e-07 3.4078639827322583e-06 -0.015739631743851245 1.7101735004920126e-06 -9.86158441889555e-07 1.7101735004920126e-06 0.003486950144866326" free_energy=-113.28998048 energy=-113.28935348 pbc="T T T"
C        0.00000000       0.00000000      13.95686000      -0.09132700      -0.15663300       0.01238800
C       -0.00002000       2.45999000      13.95682000      -0.09108600       0.15776500       0.01272500
C        2.13042000       1.22997000      13.95686000       0.18131100       0.00077500       0.01238800
C        2.84053000       2.45999000      13.95144000       0.00020300      -0.00002100       0.00599600
C        0.71010000       1.23001000      13.98274000       0.00099500      -0.00172300       0.00176300
C        2.84055000       0.00000000      13.95144000      -0.00008300      -0.00018600       0.00599600
C        0.00000000       0.00000000      10.06548000      -0.00927200      -0.01659800      -0.00802400
C       -0.00002000       2.45999000      10.06546000      -0.00881700       0.01527200      -0.00800300
C        2.13042000       1.22997000      10.06548000       0.01901100      -0.00026900      -0.00802400
C        3.55067000       1.22997000      10.06593000      -0.01923300       0.00118700      -0.00676300
C        1.42025000       0.00000000      10.06595000       0.00965600      -0.01672400      -0.00676500
C        1.42030000       2.45995000      10.06593000       0.00858800       0.01725000      -0.00676300
Li       0.70994000       1.23029000      11.84959000       0.00005500      -0.00009500      -0.00691400
13