13
Lattice="4.260799885 0.0 0.0 -2.130399942 3.689960941 0.0 0.0 0.0 24.0" Properties=species:S:1:pos:R:3:forces:R:3 stress="-0.015311270731032754 3.476520583116975e-06 -1.1234716426589864e-07 3.476520583116975e-06 -0.015315284021400697 1.8724527377649773e-07 -1.1234716426589864e-07 1.8724527377649773e-07 -0.004916792504478418" free_energy=-113.07414245 energy=-113.07322748 pbc="T T T"
C        0.00000000       0.00000000      13.85000000      -0.09967700      -0.17136500       0.03089300
C       -0.00002000       2.45999000      13.85000000      -0.09947600       0.17229700       0.03092200
C        2.13042000       1.22997000      13.85000000       0.19824500       0.00064000       0.03089300
C        2.84053000       2.45999000      13.85000000       0.00022000       0.00013100      -0.01067700
C        0.71010000       1.23001000      13.85000000       0.00086200      -0.00149300       1.72965800
C        2.84055000       0.00000000      13.85000000      -0.00022400      -0.00012500      -0.01067700
C        0.00000000       0.00000000      10.15000000      -0.00178800      -0.00353000      -0.02947600
C       -0.00002000       2.45999000      10.15000000      -0.00116200       0.00201200      -0.02946900
C        2.13042000       1.22997000      10.15000000       0.00395100      -0.00021700      -0.02947600
C        3.55067000       1.22997000      10.15000000      -0.00387400       0.00126200      -0.01834600
C        1.42025000       0.00000000      10.15000000       0.00207200      -0.00358900      -0.01833800
C        1.42030000       2.45995000      10.15000000       0.00084400       0.00398600      -0.01834600
Li       0.71010000       1.23001000      12.00000000       0.00000500      -0.00000800      -1.65756000
13
Lattice="4.260799885 0.0 0.0 -2.130399942 3.689960941 0.0 0.0 0.0 24.0" Properties=species:S:1:pos:R:3:forces:R:3 stress="-0.015409680605420554 3.501486619620508e-06 -3.3079998367181266e-07 3.501486619620508e-06 -0.015413725103334126 5.742188395812598e-07 -3.3079998367181266e-07 5.742188395812598e-07 -0.0007765311163876398" free_energy=-113.21083294 energy=-113.21013878 pbc="T T T"
C        0.00000000       0.00000000      13.85149000      -0.07099200      -0.12152300       0.38381700
C       -0.00002000       2.45999000      13.85149000      -0.07076900       0.12257500       0.38376900
C        2.13042000       1.22997000      13.85149000       0.14073800       0.00072000       0.38381700
C        2.84053000       2.45999000      13.84948000       0.00025400       0.00005600      -0.08118800
C        0.71010000       1.23001000      13.93344000       0.00089600      -0.00155300      -0.24845000
C        2.84055000       0.00000000      13.84948000      -0.00017500      -0.00019200      -0.08118800
C        0.00000000       0.00000000      10.14858000      -0.01274900      -0.02246500      -0.05886100
C       -0.00002000       2.45999000      10.14858000      -0.01212700       0.02100400      -0.05886200
C        2.13042000       1.22997000      10.14858000       0.02583000      -0.00019100      -0.05886100
C        3.55067000       1.22997000      10.14911000      -0.02570600       0.00123400      -0.05732500
C        1.42025000       0.00000000      10.14912000       0.01300700      -0.02252900      -0.05731300
C        1.42030000       2.45995000      10.14911000       0.01178400       0.02287800      -0.05732500
Li       0.71011000       1.23001000      11.92003000       0.00000800      -0.00001400      -0.39203100
13
Lattice="4.260799885 0.0 0.0 -2.130399942 3.689960941 0.0 0.0 0.0 24.0" Properties=species:S:1:pos:R:3:forces:R:3 stress="-0.015236478727177292 3.5202111469981578e-06 -2.4966036503533035e-07 3.5202111469981578e-06 -0.015240541949618245 4.369056388118281e-07 -2.4966036503533035e-07 4.369056388118281e-07 -0.0002998483399165576" free_energy=-113.22847228 energy=-113.22782936 pbc="T T T"
C        0.00000000       0.00000000      13.86867000      -0.08426100      -0.14447900       0.01480400
C       -0.00002000       2.45999000      13.86867000      -0.08403700       0.14555600       0.01478600
C        2.13042000       1.22997000      13.86867000       0.16725300       0.00073300       0.01480400
C        2.84053000       2.45999000      13.84585000       0.00025900       0.00004500       0.23919900
C        0.71010000       1.23001000      13.92232000       0.00090600      -0.00156900       0.11634300
C        2.84055000       0.00000000      13.84585000      -0.00016800      -0.00020200       0.23919900
C        0.00000000       0.00000000      10.14594000      -0.01539000      -0.02703700      -0.05823100
C       -0.00002000       2.45999000      10.14594000      -0.01476900       0.02558100      -0.05823300
C        2.13042000       1.22997000      10.14594000       0.03111000      -0.00019000      -0.05823100
C        3.55067000       1.22997000      10.14655000      -0.03104300       0.00123000      -0.05726200
C        1.42025000       0.00000000      10.14655000       0.01567700      -0.02715400      -0.05725500
C        1.42030000       2.45995000      10.14655000       0.01445600       0.02749900      -0.05726200
Li       0.71011000       1.23001000      11.90248000       0.00000800      -0.00001400      -0.29266100
13
Lattice="4.260799885 0.0 0.0 -2.130399942 3.689960941 0.0 0.0 0.0 24.0" Properties=species:S:1:pos:R:3:forces:R:3 stress="-0.015299792595750254 3.507728128746391e-06 -2.4966036503533035e-07 3.507728128746391e-06 -0.015303843335172951 4.3066412968594477e-07 -2.4966036503533035e-07 4.3066412968594477e-07 0.00022266583806588525" free_energy=-113.23746045 energy=-113.23683637 pbc="T T T"
C        0.00000000       0.00000000      13.87109000      -0.08322000      -0.14265900       0.10041900
C       -0.00002000       2.45999000      13.87109000      -0.08299500       0.14375200       0.10041100
C        2.13042000       1.22997000      13.87109000       0.16515600       0.00074100       0.10041900
C        2.84053000       2.45999000      13.85613000       0.00026200       0.00003800       0.12562800
C        0.71010000       1.23001000      13.92637000       0.00091000      -0.00157700      -0.00980400
C        2.84055000       0.00000000      13.85613000      -0.00016300      -0.00020800       0.12562800
C        0.00000000       0.00000000      10.14308000      -0.01774600      -0.03111000      -0.06199600
C       -0.00002000       2.45999000      10.14308000      -0.01712600       0.02966400      -0.06200100
C        2.13042000       1.22997000      10.14308000       0.03581500      -0.00018600      -0.06199600
C        3.55067000       1.22997000      10.14374000      -0.03578600       0.00122300      -0.06297100
C        1.42025000       0.00000000      10.14374000       0.01805300      -0.03126800      -0.06296700
C        1.42030000       2.45995000      10.14374000       0.01683400       0.03160300      -0.06297100
Li       0.71011000       1.23001000      11.88765000       0.00000800      -0.00001300      -0.16780100
13
Lattice="4.260799885 0.0 0.0 -2.130399942 3.689960941 0.0 0.0 0.0 24.0" Properties=species:S:1:pos:R:3:forces:R:3 stress="-0.014884251642676325 3.470279073991091e-06 -1.93486782902381e-07 3.470279073991091e-06 -0.014888258691535141 3.3704149279769594e-07 -1.93486782902381e-07 3.3704149279769594e-07 0.000647881130284934" free_energy=-113.26002547 energy=-113.25940474 pbc="T T T"
C        0.00000000       0.00000000      13.88720000      -0.08929700      -0.15318500       0.08398000
C       -0.00002000       2.45999000      13.88720000      -0.08907600       0.15428400       0.08399400
C        2.13042000       1.22997000      13.88720000       0.17731100       0.00074100       0.08398000
C        2.84053000       2.45999000      13.87775000       0.00026400       0.00003800       0.08003300
C        0.71010000       1.23001000      13.92592000       0.00091100      -0.00157700       0.05513700
C        2.84055000       0.00000000      13.87775000      -0.00016400      -0.00020900       0.08003300
C        0.00000000       0.00000000      10.13302000      -0.02199700      -0.03846800      -0.08052000
C       -0.00002000       2.45999000      10.13302000      -0.02137500       0.03702300      -0.08051700
C        2.13042000       1.22997000      10.13302000       0.04431300      -0.00018400      -0.08052000
C        3.55067000       1.22997000      10.13356000      -0.04424400       0.00122200      -0.07887100
C        1.42025000       0.00000000      10.13356000       0.02228500      -0.03859800      -0.07887500
C        1.42030000       2.45995000      10.13356000       0.02106400       0.03892700      -0.07887100
Li       0.71011000       1.23001000      11.85726000       0.00000700      -0.00001200       0.01101800
13
Lattice="4.260799885 0.0 0.0 -2.130399942 3.689960941 0.0 0.0 0.0 24.0" Properties=species:S:1:pos:R:3:forces:R:3 stress="-0.014791484092538321 3.482762092242858e-06 -1.8724527377649773e-07 3.482762092242858e-06 -0.01479550362441539 3.2455847454592937e-07 -1.8724527377649773e-07 3.2455847454592937e-07 0.001073458430033284" free_energy=-113.26279824 energy=-113.26218114 pbc="T T T"
C        0.00000000       0.00000000      13.89040000      -0.08934300      -0.15326100       0.07072000
C       -0.00002000       2.45999000      13.89040000      -0.08912300       0.15436500       0.07072900
C        2.13042000       1.22997000      13.89040000       0.17739900       0.00074200       0.07072000
C        2.84053000       2.45999000      13.88048000       0.00026400       0.00003700       0.08321100
C        0.71010000       1.23001000      13.92839000       0.00091200      -0.00158000       0.05894400
C        2.84055000       0.00000000      13.88048000      -0.00016400      -0.00021000       0.08321100
C        0.00000000       0.00000000      10.12977000      -0.02073100      -0.03627600      -0.07067800
C       -0.00002000       2.45999000      10.12977000      -0.02010800       0.03482800      -0.07067600
C        2.13042000       1.22997000      10.12977000       0.04178100      -0.00018400      -0.07067800
C        3.55067000       1.22997000      10.13038000      -0.04177200       0.00122300      -0.07115100
C        1.42025000       0.00000000      10.13039000       0.02105000      -0.03645900      -0.07115600
C        1.42030000       2.45995000      10.13038000       0.01982700       0.03678700      -0.07115100
Li       0.71011000       1.23001000      11.85901000       0.00000700      -0.00001200      -0.01204400
13
Lattice="4.260799885 0.0 0.0 -2.130399942 3.689960941 0.0 0.0 0.0 24.0" Properties=species:S:1:pos:R:3:forces:R:3 stress="-0.014922611957764004 3.4890036013687416e-06 -1.810037646506145e-07 3.4890036013687416e-06 -0.014926637731150195 3.120754562941629e-07 -1.810037646506145e-07 3.120754562941629e-07 0.0012546681644850528" free_energy=-113.27281777 energy=-113.27220779 pbc="T T T"
C        0.00000000       0.00000000      13.90285000      -0.08902400      -0.15270600       0.07378200
C       -0.00002000       2.45999000      13.90285000      -0.08880600       0.15381700       0.07377200
C        2.13042000       1.22997000      13.90285000       0.17675900       0.00074400       0.07378200
C        2.84053000       2.45999000      13.89467000       0.00026600       0.00003400       0.05395300
C        0.71010000       1.23001000      13.94056000       0.00091000      -0.00157600       0.02906600
C        2.84055000       0.00000000      13.89467000      -0.00016300      -0.00021300       0.05395300
C        0.00000000       0.00000000      10.11656000      -0.01751400      -0.03070300      -0.05504000
C       -0.00002000       2.45999000      10.11656000      -0.01688900       0.02925300      -0.05503700
C        2.13042000       1.22997000      10.11656000       0.03534600      -0.00018400      -0.05504000
C        3.55067000       1.22997000      10.11707000      -0.03533300       0.00122100      -0.05871100
C        1.42025000       0.00000000      10.11707000       0.01783300      -0.03088700      -0.05870600
C        1.42030000       2.45995000      10.11707000       0.01660900       0.03121000      -0.05871100
Li       0.71011000       1.23001000      11.86067000       0.00000600      -0.00001000      -0.01706400
13
Lattice="4.260799885 0.0 0.0 -2.130399942 3.689960941 0.0 0.0 0.0 24.0" Properties=species:S:1:pos:R:3:forces:R:3 stress="-0.01487952682026803 3.501486619620508e-06 -1.373132007694317e-07 3.501486619620508e-06 -0.014883571318181603 2.4341885590944707e-07 -1.373132007694317e-07 2.4341885590944707e-07 0.002817398494896325" free_energy=-113.28563196 energy=-113.28500967 pbc="T T T"
C        0.00000000       0.00000000      13.93266000      -0.09000000      -0.15439500      -0.00325900
C       -0.00002000       2.45999000      13.93266000      -0.08978400       0.15551000      -0.00328300
C        2.13042000       1.22997000      13.93266000       0.17871000       0.00074400      -0.00325900
C        2.84053000       2.45999000      13.92389000       0.00027000       0.00003500       0.05117900
C        0.71010000       1.23001000      13.96434000       0.00091600      -0.00158600       0.02361400
C        2.84055000       0.00000000      13.92389000      -0.00016500      -0.00021600       0.05117900
C        0.00000000       0.00000000      10.08795000      -0.01119200      -0.01974800      -0.01951500
C       -0.00002000       2.45999000      10.08796000      -0.01056700       0.01830200      -0.01951600
C        2.13042000       1.22997000      10.08795000       0.02269800      -0.00018100      -0.01951500
C        3.55067000       1.22997000      10.08774000      -0.02242900       0.00122200       0.00249100
C        1.42025000       0.00000000      10.08774000       0.01138300      -0.01971600       0.00249600
C        1.42030000       2.45995000      10.08774000       0.01015700       0.02003500       0.00249100
Li       0.71011000       1.23000000      11.86280000       0.00000300      -0.00000600      -0.06510500
13
Lattice="4.260799885 0.0 0.0 -2.130399942 3.689960941 0.0 0.0 0.0 24.0" Properties=species:S:1:pos:R:3:forces:R:3 stress="-0.014972949728864251 3.495245110494625e-06 -1.373132007694317e-07 3.495245110494625e-06 -0.014976987985268695 2.4341885590944707e-07 -1.373132007694317e-07 2.4341885590944707e-07 0.00293548160604891" free_energy=-113.28574112 energy=-113.28512288 pbc="T T T"
C        0.00000000       0.00000000      13.93113000      -0.08953000      -0.15357900       0.04064400
C       -0.00002000       2.45999000      13.93113000      -0.08931300       0.15469400       0.04063300
C        2.13042000       1.22997000      13.93113000       0.17776800       0.00074600       0.04064400
C        2.84053000       2.45999000      13.92483000       0.00027000       0.00003400       0.01089500
C        0.71010000       1.23001000      13.96425000       0.00091500      -0.00158600      -0.01302600
C        2.84055000       0.00000000      13.92483000      -0.00016400      -0.00021700       0.01089500
C        0.00000000       0.00000000      10.08843000      -0.01189900      -0.02097200      -0.01001800
C       -0.00002000       2.45999000      10.08843000      -0.01127400       0.01952700      -0.01001800
C        2.13042000       1.22997000      10.08843000       0.02411200      -0.00018100      -0.01001800
C        3.55067000       1.22997000      10.08925000      -0.02434300       0.00122100      -0.01761900
C        1.42025000       0.00000000      10.08925000       0.01234000      -0.02137400      -0.01761300
C        1.42030000       2.45995000      10.08925000       0.01111400       0.02169200      -0.01761900
Li       0.71011000       1.23000000      11.85967000       0.00000300      -0.00000500      -0.04777900
13
Lattice="4.260799885 0.0 0.0 -2.130399942 3.689960941 0.0 0.0 0.0 24.0" Properties=species:S:1:pos:R:3:forces:R:3 stress="-0.015015579236194032 3.495245110494625e-06 -1.3107169164354844e-07 3.495245110494625e-06 -0.015019623734107606 2.3093583765768057e-07 -1.3107169164354844e-07 2.3093583765768057e-07 0.0029154962938278324" free_energy=-113.28603784 energy=-113.28542006 pbc="T T T"
C        0.00000000       0.00000000      13.93286000      -0.09011900      -0.15459900       0.01425400
C       -0.00002000       2.45999000      13.93286000      -0.08990200       0.15571500       0.01424500
C        2.13042000       1.22997000      13.93286000       0.17894600       0.00074600       0.01425400
C        2.84053000       2.45999000      13.92576000       0.00027000       0.00003400       0.02139800
C        0.71010000       1.23001000      13.96437000       0.00091500      -0.00158500       0.00768200
C        2.84055000       0.00000000      13.92576000      -0.00016400      -0.00021700       0.02139800
C        0.00000000       0.00000000      10.08757000      -0.01191200      -0.02099400      -0.00901300
C       -0.00002000       2.45999000      10.08757000      -0.01128700       0.01954900      -0.00901500
C        2.13042000       1.22997000      10.08757000       0.02413800      -0.00018100      -0.00901300
C        3.55067000       1.22997000      10.08818000      -0.02425300       0.00122200      -0.00939100
C        1.42025000       0.00000000      10.08818000       0.01229600      -0.02129700      -0.00938700
C        1.42030000       2.45995000      10.08818000       0.01106900       0.02161500      -0.00939100
Li       0.71011000       1.23000000      11.85829000       0.00000300      -0.00000500      -0.03802100
13
Lattice="4.260799885 0.0 0.0 -2.130399942 3.689960941 0.0 0.0 0.0 24.0" Properties=species:S:1:pos:R:3:forces:R:3 stress="-0.015047504555372926 3.495245110494625e-06 -1.2483018251766518e-07 3.495245110494625e-06 -0.015051542811777374 2.1221131028003082e-07 -1.2483018251766518e-07 2.1221131028003082e-07 0.002950436261914527" free_energy=-113.28649048 energy=-113.28587617 pbc="T T T"
C        0.00000000       0.00000000      13.93503000      -0.09041900      -0.15512000       0.01849300
C       -0.00002000       2.45999000      13.93503000      -0.09020300       0.15623600       0.01849800
C        2.13042000       1.22997000      13.93503000       0.17954700       0.00074500       0.01849300
C        2.84053000       2.45999000      13.92880000       0.00027000       0.00003300       0.01688000
C        0.71010000       1.23001000      13.96528000       0.00091600      -0.00158600      -0.00056700
C        2.84055000       0.00000000      13.92880000      -0.00016400      -0.00021700       0.01688000
C        0.00000000       0.00000000      10.08635000      -0.01283800      -0.02259700      -0.01647800
C       -0.00002000       2.45999000      10.08635000      -0.01221100       0.02115000      -0.01647500
C        2.13042000       1.22997000      10.08635000       0.02598800      -0.00018000      -0.01647800
C        3.55067000       1.22997000      10.08686000      -0.02606400       0.00122200      -0.01425300
C        1.42025000       0.00000000      10.08686000       0.01320100      -0.02286600      -0.01425600
C        1.42030000       2.45995000      10.08686000       0.01197300       0.02318300      -0.01425300
Li       0.71011000       1.23000000      11.85240000       0.00000200      -0.00000400       0.00351800
13
Lattice="4.260799885 0.0 0.0 -2.130399942 3.689960941 0.0 0.0 0.0 24.0" Properties=species:S:1:pos:R:3:forces:R:3 stress="-0.01505060658540849 3.4890036013687416e-06 -1.2483018251766518e-07 3.4890036013687416e-06 -0.015054638600303812 2.1845281940591405e-07 -1.2483018251766518e-07 2.1845281940591405e-07 0.0029548926994304075" free_energy=-113.28651098 energy=-113.28589669 pbc="T T T"
C        0.00000000       0.00000000      13.93514000      -0.09056600      -0.15537400       0.01901000
C       -0.00002000       2.45999000      13.93514000      -0.09035000       0.15649100       0.01901400
C        2.13042000       1.22997000      13.93514000       0.17984100       0.00074500       0.01901000
C        2.84053000       2.45999000      13.92894000       0.00027000       0.00003300       0.01715900
C        0.71010000       1.23001000      13.96532000       0.00091600      -0.00158600       0.00019600
C        2.84055000       0.00000000      13.92894000      -0.00016400      -0.00021700       0.01715900
C        0.00000000       0.00000000      10.08626000      -0.01279400      -0.02252000      -0.01681700
C       -0.00002000       2.45999000      10.08626000      -0.01216700       0.02107300      -0.01681500
C        2.13042000       1.22997000      10.08626000       0.02590000      -0.00018000      -0.01681700
C        3.55067000       1.22997000      10.08677000      -0.02596600       0.00122200      -0.01477400
C        1.42025000       0.00000000      10.08677000       0.01315300      -0.02278200      -0.01477600
C        1.42030000       2.45995000      10.08677000       0.01192400       0.02309800      -0.01477400
Li       0.71011000       1.23000000      11.85227000       0.00000200      -0.00000400       0.00322400
13
Lattice="4.260799885 0.0 0.0 -2.130399942 3.689960941 0.0 0.0 0.0 24.0" Properties=species:S:1:pos:R:3:forces:R:3 stress="-0.015024236209351635 3.495245110494625e-06 -1.373132007694317e-07 3.495245110494625e-06 -0.015028268224246955 2.3093583765768057e-07 -1.373132007694317e-07 2.3093583765768057e-07 0.002890642604488565" free_energy=-113.28591575 energy=-113.28530054 pbc="T T T"
C        0.00000000       0.00000000      13.93181000      -0.09023800      -0.15480400       0.02356200
C       -0.00002000       2.45999000      13.93182000      -0.09002200       0.15592200       0.02354400
C        2.13042000       1.22997000      13.93181000       0.17918300       0.00074600       0.02356200
C        2.84053000       2.45999000      13.92504000       0.00027000       0.00003400       0.02247900
C        0.71010000       1.23001000      13.96340000       0.00091500      -0.00158500       0.00158200
C        2.84055000       0.00000000      13.92504000      -0.00016500      -0.00021700       0.02247900
C        0.00000000       0.00000000      10.08865000      -0.01234700      -0.02174900      -0.01184000
C       -0.00002000       2.45999000      10.08865000      -0.01172200       0.02030400      -0.01184300
C        2.13042000       1.22997000      10.08865000       0.02500900      -0.00018200      -0.01184000
C        3.55067000       1.22997000      10.08931000      -0.02513800       0.00122000      -0.01515500
C        1.42025000       0.00000000      10.08931000       0.01273800      -0.02206300      -0.01514100
C        1.42030000       2.45995000      10.08931000       0.01151200       0.02238100      -0.01515500
Li       0.71011000       1.23000000      11.85718000       0.00000300      -0.00000600      -0.03623400
13
Lattice="4.260799885 0.0 0.0 -2.130399942 3.689960941 0.0 0.0 0.0 24.0" Properties=species:S:1:pos:R:3:forces:R:3 stress="-0.014898394902355573 8.407312792564749e-06 4.556301661894778e-07 8.407312792564749e-06 -0.014908100449046323 -7.864301498612905e-07 4.556301661894778e-07 -7.864301498612905e-07 0.002897433366417526" free_energy=-113.28578194 energy=-113.28516661 pbc="T T T"
C        0.00000000       0.00000000      13.93124000      -0.09042900      -0.15435300       0.02564300
C       -0.00002000       2.45999000      13.93125000      -0.09021300       0.15625300       0.02562100
C        2.13042000       1.22997000      13.93124000       0.17888800       0.00113700       0.02564300
C        2.84053000       2.45999000      13.92425000       0.00598800       0.00046400       0.02353700
C        0.71010000       1.23001000      13.96263000       0.00068900      -0.00119400       0.00300300
C        2.84055000       0.00000000      13.92425000      -0.00339500      -0.00495400       0.02353700
C        0.00000000       0.00000000      10.08933000      -0.01269100      -0.02156100      -0.01459200
C       -0.00002000       2.45999000      10.08933000      -0.01206600       0.02089900      -0.01459600
C        2.13042000       1.22997000      10.08933000       0.02501800       0.00021000      -0.01459200
C        3.55067000       1.22997000      10.08995000      -0.02558400       0.00161200      -0.01514800
C        1.42025000       0.00000000      10.08995000       0.01262200      -0.02186100      -0.01513200
C        1.42030000       2.45995000      10.08995000       0.01139600       0.02296300      -0.01514800
Li       0.71011000       1.23000000      11.85728000      -0.00022300       0.00038500      -0.03777800
13
Lattice="4.260799885 0.0 0.0 -2.130399942 3.689960941 0.0 0.0 0.0 24.0" Properties=species:S:1:pos:R:3:forces:R:3 stress="-0.015085396757276165 3.5202111469981578e-06 3.058339471682796e-07 3.5202111469981578e-06 -0.015089459979717113 -5.30528275700077e-07 3.058339471682796e-07 -5.30528275700077e-07 0.003063900656313958" free_energy=-113.28724984 energy=-113.28663441 pbc="T T T"
C        0.00000000       0.00000000      13.93876000      -0.09018500      -0.15473700       0.03975000
C       -0.00002000       2.45999000      13.93876000      -0.08997400       0.15583900       0.03977800
C        2.13042000       1.22997000      13.93876000       0.17909900       0.00073400       0.03975000
C        2.84053000       2.45999000      13.93422000       0.00029300       0.00005500      -0.01461800
C        0.71010000       1.23001000      13.96989000       0.00087900      -0.00152200      -0.01708000
C        2.84055000       0.00000000      13.93422000      -0.00019400      -0.00022600      -0.01461800
C        0.00000000       0.00000000      10.08212000      -0.01204700      -0.02113400      -0.02081400
C       -0.00002000       2.45999000      10.08212000      -0.01133100       0.01962500      -0.02069600
C        2.13042000       1.22997000      10.08212000       0.02432600      -0.00013400      -0.02081400
C        3.55067000       1.22997000      10.08205000      -0.02404100       0.00124200      -0.00344700
C        1.42025000       0.00000000      10.08205000       0.01226100      -0.02123700      -0.00357000
C        1.42030000       2.45995000      10.08205000       0.01094500       0.02144100      -0.00344700
Li       0.71019000       1.22986000      11.85288000      -0.00003100       0.00005300      -0.00017300
13
Lattice="4.260799885 0.0 0.0 -2.130399942 3.689960941 0.0 0.0 0.0 24.0" Properties=species:S:1:pos:R:3:forces:R:3 stress="-0.015090333790994736 3.5264526561240406e-06 1.547894263219048e-06 3.5264526561240406e-06 -0.015094403254944815 -2.6776074150039183e-06 1.547894263219048e-06 -2.6776074150039183e-06 0.0031443287429100903" free_energy=-113.28741973 energy=-113.28680316 pbc="T T T"
C        0.00000000       0.00000000      13.93979000      -0.09016800      -0.15482200       0.04123300
C       -0.00002000       2.45999000      13.93979000      -0.08995800       0.15581200       0.04126600
C        2.13042000       1.22997000      13.93979000       0.17916400       0.00067600       0.04123300
C        2.84053000       2.45999000      13.93517000       0.00032900       0.00000700      -0.01113400
C        0.71010000       1.23001000      13.97085000       0.00090100      -0.00156100      -0.01605000
C        2.84055000       0.00000000      13.93517000      -0.00017100      -0.00028100      -0.01113400
C        0.00000000       0.00000000      10.08111000      -0.01173900      -0.02068500      -0.02224700
C       -0.00002000       2.45999000      10.08111000      -0.01100000       0.01905300      -0.02211400
C        2.13042000       1.22997000      10.08111000       0.02378300      -0.00017700      -0.02224700
C        3.55067000       1.22997000      10.08103000      -0.02342300       0.00119300      -0.00476100
C        1.42025000       0.00000000      10.08104000       0.01201600      -0.02081200      -0.00490200
C        1.42030000       2.45995000      10.08103000       0.01067800       0.02088100      -0.00476100
Li       0.71021000       1.22983000      11.85300000      -0.00041300       0.00071600      -0.00438200
13
Lattice="4.260799885 0.0 0.0 -2.130399942 3.689960941 0.0 0.0 0.0 24.0" Properties=species:S:1:pos:R:3:forces:R:3 stress="-0.015158815629123929 3.4640375648652083e-06 3.3079998367181266e-07 3.4640375648652083e-06 -0.015162816436473622 -5.742188395812598e-07 3.3079998367181266e-07 -5.742188395812598e-07 0.0030546008077163922" free_energy=-113.28693131 energy=-113.28631492 pbc="T T T"
C        0.00000000       0.00000000      13.93779000      -0.09097500      -0.15031900       0.00211000
C       -0.00002000       2.45999000      13.93779000      -0.08572800       0.14848500       0.00427000
C        2.13042000       1.22997000      13.93779000       0.17566800       0.00362700       0.00211000
C        2.84053000       2.45999000      13.93059000       0.00029000       0.00006100       0.03853700
C        0.71010000       1.23001000      13.96642000       0.00087700      -0.00151900       0.02425800
C        2.84055000       0.00000000      13.93059000      -0.00019700      -0.00022100       0.03853700
C        0.00000000       0.00000000      10.08394000      -0.01226600      -0.02151000      -0.01401500
C       -0.00002000       2.45999000      10.08394000      -0.01155300       0.02001000      -0.01391000
C        2.13042000       1.22997000      10.08394000       0.02476100      -0.00013200      -0.01401500
C        3.55067000       1.22997000      10.08471000      -0.02488500       0.00124500      -0.01900100
C        1.42025000       0.00000000      10.08471000       0.01267700      -0.02195700      -0.01910400
C        1.42030000       2.45995000      10.08471000       0.01136400       0.02217400      -0.01900100
Li       0.71019000       1.22987000      11.85308000      -0.00003200       0.00005600      -0.01077600
13