13
Lattice="4.260799885 0.0 0.0 -2.130399942 3.689960941 0.0 0.0 0.0 24.0" Properties=species:S:1:pos:R:3:forces:R:3 stress="-0.014052689140325772 3.364173418851076e-06 -1.6227923727296468e-07 3.364173418851076e-06 -0.014056577600511195 2.746264015388634e-07 -1.6227923727296468e-07 2.746264015388634e-07 -0.017532542689315967" free_energy=-112.60173852 energy=-112.60071076 pbc="T T T"
C        0.00000000       0.00000000      13.70000000      -0.11182800      -0.19239700       0.15935400
C       -0.00002000       2.45999000      13.70000000      -0.11161800       0.19332800       0.15940500
C        2.13042000       1.22997000      13.70000000       0.22253500       0.00064700       0.15935400
C        2.84053000       2.45999000      13.70000000       0.00021900       0.00011700       0.01984200
C        0.71010000       1.23001000      13.70000000       0.00085200      -0.00147600       3.41380500
C        2.84055000       0.00000000      13.70000000      -0.00021100      -0.00013100       0.01984200
C        0.00000000       0.00000000      10.30000000      -0.03213400      -0.05599900      -0.16717700
C       -0.00002000       2.45999000      10.30000000      -0.03151600       0.05458700      -0.16719600
C        2.13042000       1.22997000      10.30000000       0.06456400      -0.00017100      -0.16717700
C        3.55067000       1.22997000      10.30000000      -0.06264700       0.00120400      -0.13379100
C        1.42025000       0.00000000      10.30000000       0.03148900      -0.05454000      -0.13375100
C        1.42030000       2.45995000      10.30000000       0.03028100       0.05485600      -0.13379100
Li       0.71010000       1.23001000      12.00000000       0.00001400      -0.00002500      -3.02872000
13
Lattice="4.260799885 0.0 0.0 -2.130399942 3.689960941 0.0 0.0 0.0 24.0" Properties=species:S:1:pos:R:3:forces:R:3 stress="-0.014514716853369278 2.927267780039248e-06 -5.617358213294933e-07 2.927267780039248e-06 -0.01451809975131551 9.67433914511905e-07 -5.617358213294933e-07 9.67433914511905e-07 -0.007367389991064836" free_energy=-112.91392906 energy=-112.91260238 pbc="T T T"
C        0.00000000       0.00000000      13.70769000      -0.03192400      -0.05400200       0.78839700
C       -0.00002000       2.45999000      13.70769000      -0.03168900       0.05488800       0.78830700
C        2.13042000       1.22997000      13.70769000       0.06272900       0.00064600       0.78839700
C        2.84053000       2.45999000      13.70096000       0.00021400       0.00012200      -0.07029400
C        0.71010000       1.23001000      13.86469000       0.00083500      -0.00144700      -1.12949800
C        2.84055000       0.00000000      13.70096000      -0.00021300      -0.00012500      -0.07029400
C        0.00000000       0.00000000      10.29193000      -0.07899600      -0.13703600      -0.25892800
C       -0.00002000       2.45999000      10.29193000      -0.07838600       0.13576800      -0.25894200
C        2.13042000       1.22997000      10.29193000       0.15817400      -0.00010500      -0.25892800
C        3.55067000       1.22997000      10.29355000      -0.15759900       0.00113400      -0.27654800
C        1.42025000       0.00000000      10.29355000       0.07901200      -0.13685200      -0.27651300
C        1.42030000       2.45995000      10.29355000       0.07781800       0.13705200      -0.27654800
Li       0.71011000       1.23001000      11.85389000       0.00002500      -0.00004400       0.51139100
13
Lattice="4.260799885 0.0 0.0 -2.130399942 3.689960941 0.0 0.0 0.0 24.0" Properties=species:S:1:pos:R:3:forces:R:3 stress="-0.014354746974472891 3.1269960720675124e-06 -3.7449054755299545e-07 3.1269960720675124e-06 -0.014358360808256778 6.428754399659756e-07 -3.7449054755299545e-07 6.428754399659756e-07 -0.007659361546464529" free_energy=-112.99072381 energy=-112.98962102 pbc="T T T"
C        0.00000000       0.00000000      13.73620000      -0.08218500      -0.14103000       0.10136500
C       -0.00002000       2.45999000      13.73619000      -0.08195500       0.14195100       0.10133700
C        2.13042000       1.22997000      13.73620000       0.16322800       0.00066000       0.10136500
C        2.84053000       2.45999000      13.69842000       0.00021700       0.00011500       0.44066400
C        0.71010000       1.23001000      13.82385000       0.00086000      -0.00149000       0.07314200
C        2.84055000       0.00000000      13.69842000      -0.00020800      -0.00013000       0.44066400
C        0.00000000       0.00000000      10.28257000      -0.06580000      -0.11423500      -0.22439000
C       -0.00002000       2.45999000      10.28257000      -0.06518300       0.11290100      -0.22439500
C        2.13042000       1.22997000      10.28257000       0.13183100      -0.00013300      -0.22439000
C        3.55067000       1.22997000      10.28355000      -0.13054700       0.00117200      -0.21501700
C        1.42025000       0.00000000      10.28355000       0.06546500      -0.11338900      -0.21500100
C        1.42030000       2.45995000      10.28355000       0.06425900       0.11364300      -0.21501700
Li       0.71011000       1.23001000      11.87238000       0.00002000      -0.00003400       0.05967300
13
Lattice="4.260799885 0.0 0.0 -2.130399942 3.689960941 0.0 0.0 0.0 24.0" Properties=species:S:1:pos:R:3:forces:R:3 stress="-0.014763759309001147 3.189411163326345e-06 -3.4952451104946246e-07 3.189411163326345e-06 -0.014767435557876291 6.054263852106761e-07 -3.4952451104946246e-07 6.054263852106761e-07 -0.0071702581668329395" free_energy=-113.0160044 energy=-113.01499422 pbc="T T T"
C        0.00000000       0.00000000      13.74007000      -0.08026600      -0.13767400       0.23442700
C       -0.00002000       2.45999000      13.74006000      -0.08003700       0.13862800       0.23440900
C        2.13042000       1.22997000      13.74007000       0.15936200       0.00067600       0.23442700
C        2.84053000       2.45999000      13.71582000       0.00022800       0.00009800       0.24369700
C        0.71010000       1.23001000      13.82692000       0.00086700      -0.00150200       0.04574100
C        2.84055000       0.00000000      13.71582000      -0.00019900      -0.00014900       0.24369700
C        0.00000000       0.00000000      10.27376000      -0.06142200      -0.10666400      -0.20273200
C       -0.00002000       2.45999000      10.27376000      -0.06080300       0.10531500      -0.20273100
C        2.13042000       1.22997000      10.27376000       0.12308500      -0.00013900      -0.20273200
C        3.55067000       1.22997000      10.27510000      -0.12242100       0.00117800      -0.21088100
C        1.42025000       0.00000000      10.27511000       0.06139900      -0.10634700      -0.21087900
C        1.42030000       2.45995000      10.27510000       0.06019000       0.10660900      -0.21088100
Li       0.71011000       1.23001000      11.87465000       0.00001700      -0.00003000       0.00443800
13
Lattice="4.260799885 0.0 0.0 -2.130399942 3.689960941 0.0 0.0 0.0 24.0" Properties=species:S:1:pos:R:3:forces:R:3 stress="-0.01527472045359158 3.2580677637110607e-06 -3.058339471682796e-07 3.2580677637110607e-06 -0.015278484083594487 5.242867665741937e-07 -3.058339471682796e-07 5.242867665741937e-07 -0.006508396056106027" free_energy=-113.05774687 energy=-113.05683884 pbc="T T T"
C        0.00000000       0.00000000      13.75804000      -0.08394800      -0.14401800       0.18936900
C       -0.00002000       2.45999000      13.75804000      -0.08371700       0.14500200       0.18936700
C        2.13042000       1.22997000      13.75804000       0.16669700       0.00069200       0.18936900
C        2.84053000       2.45999000      13.73688000       0.00023300       0.00008600       0.21101000
C        0.71010000       1.23001000      13.83319000       0.00087400      -0.00151300       0.15345400
C        2.84055000       0.00000000      13.73688000      -0.00019100      -0.00015800       0.21101000
C        0.00000000       0.00000000      10.25712000      -0.05526500      -0.09602500      -0.19317000
C       -0.00002000       2.45999000      10.25712000      -0.05464500       0.09464800      -0.19316300
C        2.13042000       1.22997000      10.25712000       0.11079300      -0.00015100      -0.19317000
C        3.55067000       1.22997000      10.25784000      -0.10962700       0.00118500      -0.17895600
C        1.42025000       0.00000000      10.25784000       0.05499700      -0.09525700      -0.17896100
C        1.42030000       2.45995000      10.25784000       0.05378700       0.09553300      -0.17895600
Li       0.71011000       1.23001000      11.87404000       0.00001400      -0.00002300      -0.02720400
13
Lattice="4.260799885 0.0 0.0 -2.130399942 3.689960941 0.0 0.0 0.0 24.0" Properties=species:S:1:pos:R:3:forces:R:3 stress="-0.015351609604513337 2.833645143150999e-06 -1.6415169001072968e-06 2.833645143150999e-06 -0.0153548801552953 2.8398866522768828e-06 -1.6415169001072968e-06 2.8398866522768828e-06 -0.003799331435107657" free_energy=-113.14686513 energy=-113.14611246 pbc="T T T"
C        0.00000000       0.00000000      13.79995000      -0.08509500      -0.14575200       0.18976700
C       -0.00002000       2.45999000      13.79994000      -0.08486600       0.14699200       0.18978000
C        2.13042000       1.22997000      13.79995000       0.16877200       0.00081900       0.18976700
C        2.84053000       2.45999000      13.78624000       0.00018800       0.00017000       0.14534500
C        0.71010000       1.23001000      13.86291000       0.00082300      -0.00142600       0.11649700
C        2.84055000       0.00000000      13.78624000      -0.00024100      -0.00007700       0.14534500
C        0.00000000       0.00000000      10.21496000      -0.04214500      -0.07311900      -0.14445600
C       -0.00002000       2.45999000      10.21496000      -0.04151600       0.07190800      -0.14444900
C        2.13042000       1.22997000      10.21496000       0.08439500      -0.00006100      -0.14445600
C        3.55067000       1.22997000      10.21711000      -0.08505000       0.00131600      -0.17884600
C        1.42025000       0.00000000      10.21712000       0.04261000      -0.07380300      -0.17885800
C        1.42030000       2.45995000      10.21711000       0.04138500       0.07431300      -0.17884600
Li       0.71011000       1.23000000      11.86856000       0.00074000      -0.00128200      -0.00658800
13
Lattice="4.260799885 0.0 0.0 -2.130399942 3.689960941 0.0 0.0 0.0 24.0" Properties=species:S:1:pos:R:3:forces:R:3 stress="-0.01510961381268459 3.532694165249924e-06 6.928075129730417e-07 3.532694165249924e-06 -0.015113689518143793 -1.204611261295469e-06 6.928075129730417e-07 -1.204611261295469e-06 0.0014629660485431543" free_energy=-113.27890024 energy=-113.27829394 pbc="T T T"
C        0.00000000       0.00000000      13.91541000      -0.09332600      -0.16019300       0.01815200
C       -0.00002000       2.45999000      13.91540000      -0.09311300       0.16127700       0.01820700
C        2.13042000       1.22997000      13.91541000       0.18539400       0.00072700       0.01815200
C        2.84053000       2.45999000      13.91036000       0.00030700       0.00007400       0.00776000
C        0.71010000       1.23001000      13.93934000       0.00084000      -0.00145500       0.16699600
C        2.84055000       0.00000000      13.91036000      -0.00021700      -0.00022900       0.00776000
C        0.00000000       0.00000000      10.10706000      -0.01654200      -0.02886000      -0.06708900
C       -0.00002000       2.45999000      10.10706000      -0.01575900       0.02729500      -0.06689500
C        2.13042000       1.22997000      10.10706000       0.03326500      -0.00010400      -0.06708900
C        3.55067000       1.22997000      10.10523000      -0.03191600       0.00125100       0.00007000
C        1.42025000       0.00000000      10.10523000       0.01625200      -0.02814900      -0.00013000
C        1.42030000       2.45995000      10.10523000       0.01487500       0.02826500       0.00007000
Li       0.71024000       1.22977000      11.85686000      -0.00005800       0.00010100      -0.03596300
13
Lattice="4.260799885 0.0 0.0 -2.130399942 3.689960941 0.0 0.0 0.0 24.0" Properties=species:S:1:pos:R:3:forces:R:3 stress="-0.015031270390136504 1.1184784353582799e-05 6.116678943365592e-07 1.1184784353582799e-05 -0.015044184072517957 -1.061056551400154e-06 6.116678943365592e-07 -1.061056551400154e-06 0.002043925717980368" free_energy=-113.28339534 energy=-113.28278442 pbc="T T T"
C        0.00000000       0.00000000      13.92401000      -0.09163200      -0.15358500       0.04885600
C       -0.00002000       2.45999000      13.92401000      -0.08843900       0.15318100       0.04865900
C        2.13042000       1.22997000      13.92401000       0.17882500       0.00256300       0.04885600
C        2.84053000       2.45999000      13.91921000       0.00032900       0.00004200       0.00232500
C        0.71010000       1.23001000      13.95309000       0.00086500      -0.00149800       0.05703900
C        2.84055000       0.00000000      13.91921000      -0.00020100      -0.00026400       0.00232500
C        0.00000000       0.00000000      10.09631000      -0.01470700      -0.02574900      -0.01713800
C       -0.00002000       2.45999000      10.09632000      -0.01392800       0.02412300      -0.01703800
C        2.13042000       1.22997000      10.09631000       0.02965300      -0.00013800      -0.01713800
C        3.55067000       1.22997000      10.09778000      -0.03000200       0.00121500      -0.05023500
C        1.42025000       0.00000000      10.09777000       0.01532300      -0.02654000      -0.05034000
C        1.42030000       2.45995000      10.09778000       0.01394900       0.02659000      -0.05023500
Li       0.71025000       1.22976000      11.85418000      -0.00003500       0.00006000      -0.00593900
13
Lattice="4.260799885 0.0 0.0 -2.130399942 3.689960941 0.0 0.0 0.0 24.0" Properties=species:S:1:pos:R:3:forces:R:3 stress="-0.015194148812285556 3.5202111469981578e-06 6.366339308400924e-07 3.5202111469981578e-06 -0.01519821827623563 -1.1047471152813368e-06 6.366339308400924e-07 -1.1047471152813368e-06 0.0020373284428343097" free_energy=-113.28380424 energy=-113.2831935 pbc="T T T"
C        0.00000000       0.00000000      13.92538000      -0.09106600      -0.15628000       0.02862700
C       -0.00002000       2.45999000      13.92537000      -0.09085200       0.15736000       0.02873400
C        2.13042000       1.22997000      13.92538000       0.18087600       0.00072600       0.02862700
C        2.84053000       2.45999000      13.91848000       0.00030500       0.00007600       0.02768800
C        0.71010000       1.23001000      13.95501000       0.00084500      -0.00146300       0.05224600
C        2.84055000       0.00000000      13.91848000      -0.00021800      -0.00022600       0.02768800
C        0.00000000       0.00000000      10.09630000      -0.01474600      -0.02575400      -0.03989100
C       -0.00002000       2.45999000      10.09632000      -0.01397200       0.02420100      -0.03983600
C        2.13042000       1.22997000      10.09630000       0.02967600      -0.00010600      -0.03989100
C        3.55067000       1.22997000      10.09633000      -0.02933200       0.00124900      -0.02368900
C        1.42025000       0.00000000      10.09631000       0.01495300      -0.02589900      -0.02374900
C        1.42030000       2.45995000      10.09633000       0.01358400       0.02602700      -0.02368900
Li       0.71025000       1.22977000      11.85401000      -0.00005200       0.00009000      -0.00286700
13
Lattice="4.260799885 0.0 0.0 -2.130399942 3.689960941 0.0 0.0 0.0 24.0" Properties=species:S:1:pos:R:3:forces:R:3 stress="-0.0149038749473681 3.5264526561240406e-06 5.991848760847928e-07 3.5264526561240406e-06 -0.014907944411318177 -1.0423320240225043e-06 5.991848760847928e-07 -1.0423320240225043e-06 0.0026361263453532975" free_energy=-113.28549547 energy=-113.28488215 pbc="T T T"
C        0.00000000       0.00000000      13.93001000      -0.09042700      -0.15517500       0.01999400
C       -0.00002000       2.45999000      13.93000000      -0.09021400       0.15625600       0.02006500
C        2.13042000       1.22997000      13.93001000       0.17959900       0.00072500       0.01999400
C        2.84053000       2.45999000      13.92264000       0.00030600       0.00007600       0.03108900
C        0.71010000       1.23001000      13.96079000       0.00084800      -0.00146900       0.00476000
C        2.84055000       0.00000000      13.92264000      -0.00021800      -0.00022700       0.03108900
C        0.00000000       0.00000000      10.09138000      -0.01367800      -0.02390800      -0.00915500
C       -0.00002000       2.45999000      10.09140000      -0.01291100       0.02236300      -0.00915400
C        2.13042000       1.22997000      10.09138000       0.02754400      -0.00010800      -0.00915500
C        3.55067000       1.22997000      10.09209000      -0.02778200       0.00124800      -0.03091700
C        1.42025000       0.00000000      10.09207000       0.01417200      -0.02454700      -0.03091700
C        1.42030000       2.45995000      10.09209000       0.01281000       0.02468400      -0.03091700
Li       0.71024000       1.22977000      11.85349000      -0.00004800       0.00008200      -0.00677700
13
Lattice="4.260799885 0.0 0.0 -2.130399942 3.689960941 0.0 0.0 0.0 24.0" Properties=species:S:1:pos:R:3:forces:R:3 stress="-0.014910403565913775 3.7012149116487724e-06 1.1484376791625197e-06 3.7012149116487724e-06 -0.014914672758155879 -1.9847999020308764e-06 1.1484376791625197e-06 -1.9847999020308764e-06 0.0026344161718528055" free_energy=-113.28551434 energy=-113.28490343 pbc="T T T"
C        0.00000000       0.00000000      13.92990000      -0.09082700      -0.15591900       0.02983800
C       -0.00002000       2.45999000      13.92991000      -0.09061800       0.15695400       0.02982300
C        2.13042000       1.22997000      13.92990000       0.18044300       0.00069900       0.02983800
C        2.84053000       2.45999000      13.92392000       0.00032500       0.00004500       0.01593800
C        0.71010000       1.23001000      13.95982000       0.00087000      -0.00150600       0.01096400
C        2.84055000       0.00000000      13.92392000      -0.00020200      -0.00025800       0.01593800
C        0.00000000       0.00000000      10.09202000      -0.01401900      -0.02456200      -0.05069500
C       -0.00002000       2.45999000      10.09204000      -0.01325900       0.02296600      -0.05070000
C        2.13042000       1.22997000      10.09202000       0.02828100      -0.00014000      -0.05069500
C        3.55067000       1.22997000      10.09115000      -0.02725700       0.00122000       0.00885600
C        1.42025000       0.00000000      10.09113000       0.01392800      -0.02412400       0.00885700
C        1.42030000       2.45995000      10.09115000       0.01257200       0.02421500       0.00885600
Li       0.71024000       1.22978000      11.85310000      -0.00023600       0.00041000      -0.00681700
13
Lattice="4.260799885 0.0 0.0 -2.130399942 3.689960941 0.0 0.0 0.0 24.0" Properties=species:S:1:pos:R:3:forces:R:3 stress="-0.015041181906628407 3.5389356743758075e-06 5.055622391965439e-07 3.5389356743758075e-06 -0.015045263853596736 -8.738112776236562e-07 5.055622391965439e-07 -8.738112776236562e-07 0.0027491101435500364" free_energy=-113.2859817 energy=-113.28536973 pbc="T T T"
C        0.00000000       0.00000000      13.93228000      -0.09141300      -0.15687600       0.01032300
C       -0.00002000       2.45999000      13.93229000      -0.09120500       0.15797200       0.01027000
C        2.13042000       1.22997000      13.93228000       0.18156500       0.00072800       0.01032300
C        2.84053000       2.45999000      13.92659000       0.00030700       0.00006900       0.00867900
C        0.71010000       1.23001000      13.96037000       0.00086000      -0.00149000       0.02844700
C        2.84055000       0.00000000      13.92659000      -0.00021400      -0.00023100       0.00867900
C        0.00000000       0.00000000      10.08966000      -0.01354900      -0.02370500      -0.02408300
C       -0.00002000       2.45999000      10.08968000      -0.01280300       0.02217500      -0.02409900
C        2.13042000       1.22997000      10.08966000       0.02730300      -0.00011900      -0.02408300
C        3.55067000       1.22997000      10.08942000      -0.02687400       0.00124500      -0.00116600
C        1.42025000       0.00000000      10.08940000       0.01370100      -0.02373100      -0.00115200
C        1.42030000       2.45995000      10.08942000       0.01235900       0.02389600      -0.00116600
Li       0.71023000       1.22980000      11.85238000      -0.00003900       0.00006700      -0.00097100
13
Lattice="4.260799885 0.0 0.0 -2.130399942 3.689960941 0.0 0.0 0.0 24.0" Properties=species:S:1:pos:R:3:forces:R:3 stress="-0.01509063338343278 3.532694165249924e-06 4.369056388118281e-07 3.532694165249924e-06 -0.015094715330401109 -7.614641133577575e-07 4.369056388118281e-07 -7.614641133577575e-07 0.0029600232199318835" free_energy=-113.28689724 energy=-113.28628309 pbc="T T T"
C        0.00000000       0.00000000      13.93718000      -0.09127400      -0.15663300       0.02228100
C       -0.00002000       2.45999000      13.93719000      -0.09106900       0.15773600       0.02221200
C        2.13042000       1.22997000      13.93718000       0.18128500       0.00072900       0.02228100
C        2.84053000       2.45999000      13.93196000       0.00030600       0.00006500       0.00521900
C        0.71010000       1.23001000      13.96505000       0.00086600      -0.00150100       0.02233000
C        2.84055000       0.00000000      13.93196000      -0.00020900      -0.00023300       0.00521900
C        0.00000000       0.00000000      10.08458000      -0.01277800      -0.02238100      -0.02204500
C       -0.00002000       2.45999000      10.08460000      -0.01204400       0.02086000      -0.02208300
C        2.13042000       1.22997000      10.08458000       0.02577100      -0.00012400      -0.02204500
C        3.55067000       1.22997000      10.08479000      -0.02558500       0.00124400      -0.01171400
C        1.42025000       0.00000000      10.08477000       0.01304800      -0.02260000      -0.01167500
C        1.42030000       2.45995000      10.08479000       0.01171500       0.02278000      -0.01171400
Li       0.71022000       1.22982000      11.85138000      -0.00003300       0.00005700       0.00173300
13
Lattice="4.260799885 0.0 0.0 -2.130399942 3.689960941 0.0 0.0 0.0 24.0" Properties=species:S:1:pos:R:3:forces:R:3 stress="-0.015052479038146258 3.532694165249924e-06 4.743546935671276e-07 3.532694165249924e-06 -0.015056560985114584 -8.238792046165901e-07 4.743546935671276e-07 -8.238792046165901e-07 0.0028973896758536445" free_energy=-113.28636875 energy=-113.2857555 pbc="T T T"
C        0.00000000       0.00000000      13.93432000      -0.09110100      -0.15633400       0.02044600
C       -0.00002000       2.45999000      13.93433000      -0.09089300       0.15743100       0.02040300
C        2.13042000       1.22997000      13.93432000       0.18094000       0.00072900       0.02044600
C        2.84053000       2.45999000      13.92899000       0.00030600       0.00006700       0.00762200
C        0.71010000       1.23001000      13.96312000       0.00086200      -0.00149200       0.01534300
C        2.84055000       0.00000000      13.92899000      -0.00021100      -0.00023200       0.00762200
C        0.00000000       0.00000000      10.08721000      -0.01316100      -0.02303700      -0.02039800
C       -0.00002000       2.45999000      10.08723000      -0.01241800       0.02150900      -0.02040600
C        2.13042000       1.22997000      10.08721000       0.02653100      -0.00012100      -0.02039800
C        3.55067000       1.22997000      10.08744000      -0.02635200       0.00124500      -0.01037300
C        1.42025000       0.00000000      10.08743000       0.01343700      -0.02327300      -0.01036700
C        1.42030000       2.45995000      10.08744000       0.01209800       0.02344400      -0.01037300
Li       0.71022000       1.22981000      11.85197000      -0.00003700       0.00006400       0.00043200
13
Lattice="4.260799885 0.0 0.0 -2.130399942 3.689960941 0.0 0.0 0.0 24.0" Properties=species:S:1:pos:R:3:forces:R:3 stress="-0.01503200688821336 1.1178542844456915e-05 5.367697848259602e-07 1.1178542844456915e-05 -0.015044914329085685 -9.299848597566055e-07 5.367697848259602e-07 -9.299848597566055e-07 0.0021564101954470367" free_energy=-113.28354062 energy=-113.2829301 pbc="T T T"
C        0.00000000       0.00000000      13.92407000      -0.09099400      -0.15247600       0.05203900
C       -0.00002000       2.45999000      13.92406000      -0.08779900       0.15207300       0.05184600
C        2.13042000       1.22997000      13.92407000       0.17754500       0.00256500       0.05203900
C        2.84053000       2.45999000      13.91851000       0.00032600       0.00003900       0.00953400
C        0.71010000       1.23001000      13.95520000       0.00086900      -0.00150500       0.03384400
C        2.84055000       0.00000000      13.91851000      -0.00019700      -0.00026300       0.00953400
C        0.00000000       0.00000000      10.09655000      -0.01469700      -0.02574700      -0.02836300
C       -0.00002000       2.45999000      10.09657000      -0.01393300       0.02413200      -0.02832700
C        2.13042000       1.22997000      10.09655000       0.02964600      -0.00014600      -0.02836300
C        3.55067000       1.22997000      10.09730000      -0.02964500       0.00121100      -0.04186100
C        1.42025000       0.00000000      10.09728000       0.01513300      -0.02621100      -0.04189900
C        1.42030000       2.45995000      10.09730000       0.01377300       0.02627900      -0.04186100
Li       0.71024000       1.22978000      11.85403000      -0.00002800       0.00004900       0.00183700
13
Lattice="4.260799885 0.0 0.0 -2.130399942 3.689960941 0.0 0.0 0.0 24.0" Properties=species:S:1:pos:R:3:forces:R:3 stress="-0.015101119118764262 3.5389356743758075e-06 3.994565840565286e-07 3.5389356743758075e-06 -0.015105201065732592 -6.928075129730417e-07 3.994565840565286e-07 -6.928075129730417e-07 0.0030395587707230136" free_energy=-113.28740856 energy=-113.28679233 pbc="T T T"
C        0.00000000       0.00000000      13.94029000      -0.09131700      -0.15670800       0.02075900
C       -0.00002000       2.45999000      13.94030000      -0.09111400       0.15781300       0.02065400
C        2.13042000       1.22997000      13.94029000       0.18137100       0.00072900       0.02075900
C        2.84053000       2.45999000      13.93529000       0.00030500       0.00006300      -0.00147200
C        0.71010000       1.23001000      13.96786000       0.00087000      -0.00150700       0.02041300
C        2.84055000       0.00000000      13.93529000      -0.00020700      -0.00023300      -0.00147200
C        0.00000000       0.00000000      10.08111000      -0.01218600      -0.02136100      -0.00710100
C       -0.00002000       2.45999000      10.08113000      -0.01145800       0.01984700      -0.00713200
C        2.13042000       1.22997000      10.08111000       0.02459300      -0.00012700      -0.00710100
C        3.55067000       1.22997000      10.08218000      -0.02484000       0.00124300      -0.02064600
C        1.42025000       0.00000000      10.08216000       0.01266900      -0.02194400      -0.02061700
C        1.42030000       2.45995000      10.08218000       0.01134400       0.02213300      -0.02064600
Li       0.71021000       1.22983000      11.85078000      -0.00003000       0.00005200       0.00360200
13
Lattice="4.260799885 0.0 0.0 -2.130399942 3.689960941 0.0 0.0 0.0 24.0" Properties=species:S:1:pos:R:3:forces:R:3 stress="-0.015603853954326782 3.5451771835016907e-06 2.8086791066474663e-07 3.5451771835016907e-06 -0.015607948384313362 -4.805962026930109e-07 2.8086791066474663e-07 -4.805962026930109e-07 0.0034774380849584793" free_energy=-113.28923598 energy=-113.28861471 pbc="T T T"
C        0.00000000       0.00000000      13.95087000      -0.09149700      -0.15700900       0.01125000
C       -0.00002000       2.45999000      13.95089000      -0.09129400       0.15812600       0.01105900
C        2.13042000       1.22997000      13.95087000       0.18172200       0.00073400       0.01125000
C        2.84053000       2.45999000      13.94580000       0.00030300       0.00005600       0.00698100
C        0.71010000       1.23001000      13.97667000       0.00088500      -0.00153300       0.01846400
C        2.84055000       0.00000000      13.94580000      -0.00020000      -0.00023500       0.00698100
C        0.00000000       0.00000000      10.07139000      -0.01066100      -0.01874300      -0.01097900
C       -0.00002000       2.45999000      10.07141000      -0.00995800       0.01724800      -0.01101100
C        2.13042000       1.22997000      10.07139000       0.02156200      -0.00013900      -0.01097900
C        3.55067000       1.22997000      10.07201000      -0.02162500       0.00123800      -0.01299200
C        1.42025000       0.00000000      10.07199000       0.01104300      -0.01912700      -0.01295800
C        1.42030000       2.45995000      10.07201000       0.00974000       0.01934700      -0.01299200
Li       0.71019000       1.22987000      11.84890000      -0.00002100       0.00003700       0.00592500
13