13
Lattice="4.260799885 0.0 0.0 -2.130399942 3.689960941 0.0 0.0 0.0 24.0" Properties=species:S:1:pos:R:3:forces:R:3 stress="-0.014455672177038425 2.3343244130803383e-06 -1.4355470989531496e-07 2.3343244130803383e-06 -0.014458362267471679 2.4966036503533035e-07 -1.4355470989531496e-07 2.4966036503533035e-07 -0.0374824655536504" free_energy=-111.51656731 energy=-111.51417466 pbc="T T T"
C        0.00000000       0.00000000      13.55000000      -0.13772100      -0.23748400       0.37776400
C       -0.00002000       2.45999000      13.55000000      -0.13752800       0.23820500       0.37784600
C        2.13042000       1.22997000      13.55000000       0.27452800       0.00052800       0.37776400
C        2.84053000       2.45999000      13.55000000       0.00017200       0.00023700       0.12812000
C        0.71010000       1.23001000      13.55000000       0.00078000      -0.00135000       6.33759800
C        2.84055000       0.00000000      13.55000000      -0.00029200      -0.00003100       0.12812000
C        0.00000000       0.00000000      10.45000000      -0.09216000      -0.15973900      -0.39322700
C       -0.00002000       2.45999000      10.45000000      -0.09155500       0.15857700      -0.39326100
C        2.13042000       1.22997000      10.45000000       0.18441800      -0.00005700      -0.39322700
C        3.55067000       1.22997000      10.45000000      -0.17924200       0.00107800      -0.34739100
C        1.42025000       0.00000000      10.45000000       0.08988000      -0.15567600      -0.34734200
C        1.42030000       2.45995000      10.45000000       0.08868800       0.15576700      -0.34739100
Li       0.71010000       1.23001000      12.00000000       0.00003200      -0.00005500      -5.50537400
13
Lattice="4.260799885 0.0 0.0 -2.130399942 3.689960941 0.0 0.0 0.0 24.0" Properties=species:S:1:pos:R:3:forces:R:3 stress="-0.016305836485714872 1.7850716100026118e-06 -9.237433506307223e-07 1.7850716100026118e-06 -0.016307896183726415 1.6040678453519974e-06 -9.237433506307223e-07 1.6040678453519974e-06 -0.014035212914773299" free_energy=-111.87715209 energy=-111.87474128 pbc="T T T"
C        0.00000000       0.00000000      13.56822000       0.08801300       0.15358400       1.52965900
C       -0.00002000       2.45999000      13.56823000       0.08827100      -0.15289000       1.52951000
C        2.13042000       1.22997000      13.56822000      -0.17701500       0.00057000       1.52965900
C        2.84053000       2.45999000      13.55618000       0.00019600       0.00017600      -0.03746900
C        0.71010000       1.23001000      13.85574000       0.00074300      -0.00128700      -3.21686000
C        2.84055000       0.00000000      13.55618000      -0.00025100      -0.00008200      -0.03746900
C        0.00000000       0.00000000      10.43103000      -0.28031600      -0.48540300      -0.70521500
C       -0.00002000       2.45999000      10.43103000      -0.27972400       0.48449700      -0.70527500
C        2.13042000       1.22997000      10.43103000       0.56052900       0.00006000      -0.70521500
C        3.55067000       1.22997000      10.43324000      -0.55996200       0.00095800      -0.72030500
C        1.42025000       0.00000000      10.43324000       0.28029500      -0.48548600      -0.72019300
C        1.42030000       2.45995000      10.43324000       0.27915100       0.48542000      -0.72030500
Li       0.71011000       1.23001000      11.73441000       0.00006800      -0.00011800       2.97947700
13
Lattice="4.260799885 0.0 0.0 -2.130399942 3.689960941 0.0 0.0 0.0 24.0" Properties=species:S:1:pos:R:3:forces:R:3 stress="-0.015584817351492837 2.215735739688557e-06 -6.116678943365592e-07 2.215735739688557e-06 -0.01558737637023445 1.0548150422742707e-06 -6.116678943365592e-07 1.0548150422742707e-06 -0.016072017070841032" free_energy=-112.45374273 energy=-112.45135561 pbc="T T T"
C        0.00000000       0.00000000      13.61445000      -0.06663900      -0.11437100       0.29462500
C       -0.00002000       2.45999000      13.61445000      -0.06641200       0.11502900       0.29457600
C        2.13042000       1.22997000      13.61445000       0.13236800       0.00052600       0.29462500
C        2.84053000       2.45999000      13.55505000       0.00016200       0.00023800       0.80294300
C        0.71010000       1.23001000      13.75854000       0.00077600      -0.00134500      -0.46817400
C        2.84055000       0.00000000      13.55505000      -0.00028700      -0.00002100       0.80294300
C        0.00000000       0.00000000      10.40972000      -0.16919200      -0.29301000      -0.53478600
C       -0.00002000       2.45999000      10.40972000      -0.16857900       0.29198700      -0.53477600
C        2.13042000       1.22997000      10.40972000       0.33835000       0.00002000      -0.53478600
C        3.55067000       1.22997000      10.41148000      -0.33622100       0.00101700      -0.51077700
C        1.42025000       0.00000000      10.41148000       0.16841100      -0.29169700      -0.51075400
C        1.42030000       2.45995000      10.41148000       0.16723000       0.29168400      -0.51077700
Li       0.71011000       1.23001000      11.82444000       0.00003300      -0.00005600       1.11511600
13
Lattice="4.260799885 0.0 0.0 -2.130399942 3.689960941 0.0 0.0 0.0 24.0" Properties=species:S:1:pos:R:3:forces:R:3 stress="-0.015345648963298117 2.390497995213288e-06 -5.180452574483105e-07 2.390497995213288e-06 -0.015348407710331758 8.987773141271891e-07 -5.180452574483105e-07 8.987773141271891e-07 -0.015734176664875223" free_energy=-112.57856901 energy=-112.57636841 pbc="T T T"
C        0.00000000       0.00000000      13.62047000      -0.07065100      -0.12128100       0.46742300
C       -0.00002000       2.45999000      13.62047000      -0.07042400       0.12197700       0.46739700
C        2.13042000       1.22997000      13.62047000       0.14035800       0.00054500       0.46742300
C        2.84053000       2.45999000      13.58720000       0.00016900       0.00022100       0.42438600
C        0.71010000       1.23001000      13.75190000       0.00078500      -0.00136000      -0.13724300
C        2.84055000       0.00000000      13.58720000      -0.00027600      -0.00003600       0.42438600
C        0.00000000       0.00000000      10.39103000      -0.13268800      -0.22982100      -0.39434800
C       -0.00002000       2.45999000      10.39103000      -0.13207000       0.22875200      -0.39433300
C        2.13042000       1.22997000      10.39103000       0.26537500       0.00000100      -0.39434800
C        3.55067000       1.22997000      10.39380000      -0.26513800       0.00103700      -0.44434900
C        1.42025000       0.00000000      10.39381000       0.13286300      -0.23012600      -0.44434800
C        1.42030000       2.45995000      10.39380000       0.13167100       0.23013500      -0.44434900
Li       0.71011000       1.23000000      11.85776000       0.00002600      -0.00004600       0.40230100
13
Lattice="4.260799885 0.0 0.0 -2.130399942 3.689960941 0.0 0.0 0.0 24.0" Properties=species:S:1:pos:R:3:forces:R:3 stress="-0.014592891755170964 3.3079998367181266e-06 -1.6852074639884797e-07 3.3079998367181266e-06 -0.014596717800265134 2.9335092891651315e-07 -1.6852074639884797e-07 2.9335092891651315e-07 -0.01313292163100824" free_energy=-112.84832649 energy=-112.84740399 pbc="T T T"
C        0.00000000       0.00000000      13.70558000      -0.10410100      -0.17890900       0.24393800
C       -0.00002000       2.45999000      13.70557000      -0.10387500       0.17991700       0.24399600
C        2.13042000       1.22997000      13.70558000       0.20699100       0.00069900       0.24393800
C        2.84053000       2.45999000      13.69765000       0.00024100       0.00007400       0.08883600
C        0.71010000       1.23001000      13.74623000       0.00086900      -0.00150600       1.65078200
C        2.84055000       0.00000000      13.69765000      -0.00018500      -0.00017200       0.08883600
C        0.00000000       0.00000000      10.30351000      -0.05090600      -0.08842300      -0.30754500
C       -0.00002000       2.45999000      10.30351000      -0.05027500       0.08707800      -0.30754900
C        2.13042000       1.22997000      10.30351000       0.10202900      -0.00012500      -0.30754500
C        3.55067000       1.22997000      10.29725000      -0.09436100       0.00117000      -0.08683000
C        1.42025000       0.00000000      10.29726000       0.04738900      -0.08208000      -0.08686900
C        1.42030000       2.45995000      10.29725000       0.04616700       0.08230400      -0.08683000
Li       0.71012000       1.22999000      11.93945000       0.00001500      -0.00002600      -1.37715800
13
Lattice="4.260799885 0.0 0.0 -2.130399942 3.689960941 0.0 0.0 0.0 24.0" Properties=species:S:1:pos:R:3:forces:R:3 stress="-0.01515150682193752 3.769871512033488e-06 -5.367697848259602e-07 3.769871512033488e-06 -0.015155863395307386 9.299848597566055e-07 -5.367697848259602e-07 9.299848597566055e-07 -0.01301106240683449" free_energy=-112.77057411 energy=-112.76892227 pbc="T T T"
C        0.00000000       0.00000000      13.66467000      -0.08085200      -0.13863700       0.35772300
C       -0.00002000       2.45999000      13.66467000      -0.08062300       0.13964400       0.35771600
C        2.13042000       1.22997000      13.66467000       0.16048900       0.00070200       0.35772300
C        2.84053000       2.45999000      13.63479000       0.00013500       0.00027000       0.35526400
C        0.71010000       1.23001000      13.76825000       0.00075900      -0.00131400       0.24043000
C        2.84055000       0.00000000      13.63479000      -0.00030100       0.00001800       0.35526400
C        0.00000000       0.00000000      10.34807000      -0.09620700      -0.16654800      -0.34610500
C       -0.00002000       2.45999000      10.34807000      -0.09558100       0.16555100      -0.34609300
C        2.13042000       1.22997000      10.34807000       0.19233800       0.00004300      -0.34610500
C        3.55067000       1.22997000      10.34933000      -0.19048000       0.00119700      -0.32889000
C        1.42025000       0.00000000      10.34934000       0.09541400      -0.16526200      -0.32890900
C        1.42030000       2.45995000      10.34933000       0.09420400       0.16555900      -0.32889000
Li       0.71011000       1.23000000      11.87594000       0.00070500      -0.00122100       0.00087400
13
Lattice="4.260799885 0.0 0.0 -2.130399942 3.689960941 0.0 0.0 0.0 24.0" Properties=species:S:1:pos:R:3:forces:R:3 stress="-0.014588772359147883 3.738663966404072e-06 3.058339471682796e-07 3.738663966404072e-06 -0.014593091483462996 -5.30528275700077e-07 3.058339471682796e-07 -5.30528275700077e-07 -0.011070689566761653" free_energy=-112.8433492 energy=-112.84189103 pbc="T T T"
C        0.00000000       0.00000000      13.68403000      -0.08108900      -0.13960800       0.31332300
C       -0.00002000       2.45999000      13.68403000      -0.08084600       0.14003000       0.31328600
C        2.13042000       1.22997000      13.68403000       0.16144800       0.00042200       0.31332300
C        2.84053000       2.45999000      13.65490000       0.00031900      -0.00002700       0.33157800
C        0.71010000       1.23001000      13.78259000       0.00091300      -0.00158100       0.21003400
C        2.84055000       0.00000000      13.65490000      -0.00013600      -0.00029000       0.33157800
C        0.00000000       0.00000000      10.32884000      -0.08589700      -0.14925300      -0.29494900
C       -0.00002000       2.45999000      10.32884000      -0.08520500       0.14757900      -0.29482700
C        2.13042000       1.22997000      10.32884000       0.17220600      -0.00023700      -0.29494900
C        3.55067000       1.22997000      10.33107000      -0.17135400       0.00092400      -0.30746300
C        1.42025000       0.00000000      10.33107000       0.08615300      -0.14922100      -0.30758700
C        1.42030000       2.45995000      10.33107000       0.08487700       0.14885800      -0.30746300
Li       0.71014000       1.22994000      11.87580000      -0.00138800       0.00240400      -0.00588300
13
Lattice="4.260799885 0.0 0.0 -2.130399942 3.689960941 0.0 0.0 0.0 24.0" Properties=species:S:1:pos:R:3:forces:R:3 stress="-0.015404063247207257 3.4890036013687416e-06 -4.699856371790094e-06 3.4890036013687416e-06 -0.01540809526210258 8.138927900151769e-06 -4.699856371790094e-06 8.138927900151769e-06 -0.0021380664001260656" free_energy=-113.18946529 energy=-113.18879293 pbc="T T T"
C        0.00000000       0.00000000      13.82765000      -0.08392400      -0.14343700       0.12161400
C       -0.00002000       2.45999000      13.82763000      -0.08372200       0.14501100       0.12191600
C        2.13042000       1.22997000      13.82765000       0.16618200       0.00096200       0.12161400
C        2.84053000       2.45999000      13.81243000       0.00001500      -0.00001000       0.09747200
C        0.71010000       1.23001000      13.88873000       0.00116900      -0.00202500       0.04048900
C        2.84055000       0.00000000      13.81243000       0.00000100      -0.00001800       0.09747200
C        0.00000000       0.00000000      10.18950000      -0.03277700      -0.05765200      -0.12765300
C       -0.00002000       2.45999000      10.18955000      -0.03295900       0.05708600      -0.12930900
C        2.13042000       1.22997000      10.18950000       0.06631700      -0.00044000      -0.12765300
C        3.55067000       1.22997000      10.18764000      -0.06503800       0.00124700      -0.05678600
C        1.42025000       0.00000000      10.18759000       0.03188900      -0.05523300      -0.05521300
C        1.42030000       2.45995000      10.18764000       0.03143900       0.05694800      -0.05678600
Li       0.70956000       1.23095000      11.87209000       0.00140800      -0.00243900      -0.04717600
13
Lattice="4.260799885 0.0 0.0 -2.130399942 3.689960941 0.0 0.0 0.0 24.0" Properties=species:S:1:pos:R:3:forces:R:3 stress="-0.01478589170036153 1.5042036993378653e-06 -5.167969556231337e-06 1.5042036993378653e-06 -0.01478763308140765 8.94408257739071e-06 -5.167969556231337e-06 8.94408257739071e-06 0.0009827568194159485" free_energy=-113.26424809 energy=-113.26363529 pbc="T T T"
C        0.00000000       0.00000000      13.89184000      -0.08814800      -0.15064000       0.06410000
C       -0.00002000       2.45999000      13.89184000      -0.08792300       0.15228700       0.06414000
C        2.13042000       1.22997000      13.89184000       0.17453200       0.00101800       0.06410000
C        2.84053000       2.45999000      13.88061000      -0.00001700      -0.00003700       0.10227800
C        0.71010000       1.23001000      13.93320000       0.00120100      -0.00208000       0.03416600
C        2.84055000       0.00000000      13.88061000       0.00004000      -0.00000400       0.10227800
C        0.00000000       0.00000000      10.12636000      -0.01769200      -0.03154500      -0.04969600
C       -0.00002000       2.45999000      10.12631000      -0.01786800       0.03094900      -0.05040400
C        2.13042000       1.22997000      10.12636000       0.03616500      -0.00045100      -0.04969600
C        3.55067000       1.22997000      10.12788000      -0.03760100       0.00124400      -0.07604200
C        1.42025000       0.00000000      10.12793000       0.01817500      -0.03147900      -0.07535800
C        1.42030000       2.45995000      10.12788000       0.01772300       0.03318500      -0.07604200
Li       0.70944000       1.23116000      11.86733000       0.00141400      -0.00244800      -0.05382200
13
Lattice="4.260799885 0.0 0.0 -2.130399942 3.689960941 0.0 0.0 0.0 24.0" Properties=species:S:1:pos:R:3:forces:R:3 stress="-0.014962264265240739 1.741381046121429e-06 -4.500128079761829e-06 1.741381046121429e-06 -0.014964274031179272 7.79564489822819e-06 -4.500128079761829e-06 7.79564489822819e-06 0.0027877762925848835" free_energy=-113.28546421 energy=-113.28484479 pbc="T T T"
C        0.00000000       0.00000000      13.93068000      -0.09096700      -0.15541200       0.03533200
C       -0.00002000       2.45999000      13.93068000      -0.09072100       0.15713300       0.03525600
C        2.13042000       1.22997000      13.93068000       0.18007400       0.00107400       0.03533200
C        2.84053000       2.45999000      13.92536000      -0.00005300       0.00002900       0.00325400
C        0.71010000       1.23001000      13.96056000       0.00114100      -0.00197600       0.03235300
C        2.84055000       0.00000000      13.92536000       0.00000100       0.00006100       0.00325400
C        0.00000000       0.00000000      10.08940000      -0.01136300      -0.02036700      -0.02624200
C       -0.00002000       2.45999000      10.08929000      -0.01144800       0.01982800      -0.02622400
C        2.13042000       1.22997000      10.08940000       0.02331900      -0.00034300      -0.02624200
C        3.55067000       1.22997000      10.08890000      -0.02382500       0.00128900       0.00143000
C        1.42025000       0.00000000      10.08900000       0.01133500      -0.01963200       0.00142600
C        1.42030000       2.45995000      10.08890000       0.01079600       0.02127700       0.00143000
Li       0.70943000       1.23117000      11.86178000       0.00171000      -0.00296200      -0.07035800
13
Lattice="4.260799885 0.0 0.0 -2.130399942 3.689960941 0.0 0.0 0.0 24.0" Properties=species:S:1:pos:R:3:forces:R:3 stress="-0.0150305214090414 1.6290338818555303e-06 -3.651282838641706e-06 1.6290338818555303e-06 -0.015032406344797416 6.32264874451974e-06 -3.651282838641706e-06 6.32264874451974e-06 0.0029782796341250918" free_energy=-113.28654936 energy=-113.28593035 pbc="T T T"
C        0.00000000       0.00000000      13.93606000      -0.09105900      -0.15580500       0.01078300
C       -0.00002000       2.45999000      13.93606000      -0.09081200       0.15729100       0.01073400
C        2.13042000       1.22997000      13.93606000       0.18046000       0.00095700       0.01078300
C        2.84053000       2.45999000      13.92945000       0.00002600      -0.00004300       0.02659100
C        0.71010000       1.23001000      13.96480000       0.00114800      -0.00198800       0.03598900
C        2.84055000       0.00000000      13.92945000       0.00002400      -0.00004400       0.02659100
C        0.00000000       0.00000000      10.08462000      -0.01117300      -0.02013600      -0.00783300
C       -0.00002000       2.45999000      10.08451000      -0.01116000       0.01933000      -0.00767000
C        2.13042000       1.22997000      10.08462000       0.02302500      -0.00039200      -0.00783300
C        3.55067000       1.22997000      10.08551000      -0.02399000       0.00121500      -0.01798300
C        1.42025000       0.00000000      10.08561000       0.01158100      -0.02005800      -0.01811300
C        1.42030000       2.45995000      10.08551000       0.01094300       0.02138300      -0.01798300
Li       0.70952000       1.23103000      11.85777000       0.00098700      -0.00171000      -0.04405500
13
Lattice="4.260799885 0.0 0.0 -2.130399942 3.689960941 0.0 0.0 0.0 24.0" Properties=species:S:1:pos:R:3:forces:R:3 stress="-0.015041862231123129 3.938392258432336e-06 -3.875977167173503e-06 3.938392258432336e-06 -0.015046406049766772 6.7158638194503866e-06 -3.875977167173503e-06 6.7158638194503866e-06 0.003052647215359991" free_energy=-113.28681102 energy=-113.28619367 pbc="T T T"
C        0.00000000       0.00000000      13.93655000      -0.09061100      -0.15517600       0.02489500
C       -0.00002000       2.45999000      13.93655000      -0.09036400       0.15651600       0.02486900
C        2.13042000       1.22997000      13.93655000       0.17969100       0.00088400       0.02489500
C        2.84053000       2.45999000      13.93069000       0.00007800      -0.00009100       0.01692300
C        0.71010000       1.23001000      13.96651000       0.00115600      -0.00200300       0.01151500
C        2.84055000       0.00000000      13.93069000       0.00004000      -0.00011300       0.01692300
C        0.00000000       0.00000000      10.08426000      -0.01146800      -0.02071500      -0.01674700
C       -0.00002000       2.45999000      10.08416000      -0.01140200       0.01974900      -0.01659300
C        2.13042000       1.22997000      10.08426000       0.02367300      -0.00042600      -0.01674700
C        3.55067000       1.22997000      10.08467000      -0.02430900       0.00116200      -0.01379500
C        1.42025000       0.00000000      10.08477000       0.01183800      -0.02050300      -0.01393900
C        1.42030000       2.45995000      10.08467000       0.01114800       0.02163300      -0.01379500
Li       0.70957000       1.23095000      11.85566000       0.00053000      -0.00091800      -0.02840400
13
Lattice="4.260799885 0.0 0.0 -2.130399942 3.689960941 0.0 0.0 0.0 24.0" Properties=species:S:1:pos:R:3:forces:R:3 stress="-0.015089378840098477 3.1769281450745782e-06 -3.3267243640957763e-06 3.1769281450745782e-06 -0.015093048847464497 5.754671414064364e-06 -3.3267243640957763e-06 5.754671414064364e-06 0.003084878368486052" free_energy=-113.28737401 energy=-113.2867565 pbc="T T T"
C        0.00000000       0.00000000      13.93980000      -0.09080100      -0.15557100       0.01847000
C       -0.00002000       2.45999000      13.93979000      -0.09055600       0.15684700       0.01846200
C        2.13042000       1.22997000      13.93980000       0.18012900       0.00085100       0.01847000
C        2.84053000       2.45999000      13.93387000       0.00010400      -0.00009500       0.00662700
C        0.71010000       1.23001000      13.96902000       0.00114100      -0.00197500       0.00896800
C        2.84055000       0.00000000      13.93387000       0.00003100      -0.00013700       0.00662700
C        0.00000000       0.00000000      10.08164000      -0.01146600      -0.02069700      -0.01383700
C       -0.00002000       2.45999000      10.08155000      -0.01134700       0.01965400      -0.01370000
C        2.13042000       1.22997000      10.08164000       0.02365800      -0.00041900      -0.01383700
C        3.55067000       1.22997000      10.08205000      -0.02419500       0.00114900      -0.01106000
C        1.42025000       0.00000000      10.08214000       0.01184200      -0.02051100      -0.01120000
C        1.42030000       2.45995000      10.08205000       0.01110300       0.02152800      -0.01106000
Li       0.70962000       1.23086000      11.85280000       0.00035900      -0.00062200      -0.00293000
13
Lattice="4.260799885 0.0 0.0 -2.130399942 3.689960941 0.0 0.0 0.0 24.0" Properties=species:S:1:pos:R:3:forces:R:3 stress="-0.015101106635746011 3.3516904005993096e-06 -2.5278111959827194e-06 3.3516904005993096e-06 -0.01510497637140406 4.381539406370047e-06 -2.5278111959827194e-06 4.381539406370047e-06 0.0031933370725665254" free_energy=-113.28779755 energy=-113.28717875 pbc="T T T"
C        0.00000000       0.00000000      13.94255000      -0.09089100      -0.15579500       0.01298400
C       -0.00002000       2.45999000      13.94254000      -0.09064600       0.15700400       0.01299300
C        2.13042000       1.22997000      13.94255000       0.18036800       0.00081700       0.01298400
C        2.84053000       2.45999000      13.93591000       0.00013000      -0.00010900       0.02082200
C        0.71010000       1.23001000      13.97113000       0.00113500      -0.00196500       0.01403400
C        2.84055000       0.00000000      13.93591000       0.00002900      -0.00016700       0.02082200
C        0.00000000       0.00000000      10.07930000      -0.01116400      -0.02018500      -0.01590300
C       -0.00002000       2.45999000      10.07923000      -0.01100500       0.01906100      -0.01582100
C        2.13042000       1.22997000      10.07930000       0.02306300      -0.00042400      -0.01590300
C        3.55067000       1.22997000      10.07980000      -0.02357500       0.00112800      -0.01549200
C        1.42025000       0.00000000      10.07987000       0.01158900      -0.02007200      -0.01557600
C        1.42030000       2.45995000      10.07980000       0.01081100       0.02098100      -0.01549200
Li       0.70966000       1.23078000      11.85210000       0.00015800      -0.00027300      -0.00045200
13
Lattice="4.260799885 0.0 0.0 -2.130399942 3.689960941 0.0 0.0 0.0 24.0" Properties=species:S:1:pos:R:3:forces:R:3 stress="-0.015095339481313695 3.339207382347543e-06 -2.6588828876262677e-06 3.339207382347543e-06 -0.015099190492444367 4.606233734901844e-06 -2.6588828876262677e-06 4.606233734901844e-06 0.003119475053570823" free_energy=-113.28749972 energy=-113.28688224 pbc="T T T"
C        0.00000000       0.00000000      13.94083000      -0.09089600      -0.15579900       0.01230400
C       -0.00002000       2.45999000      13.94082000      -0.09065200       0.15701500       0.01230600
C        2.13042000       1.22997000      13.94083000       0.18037400       0.00081900       0.01230400
C        2.84053000       2.45999000      13.93421000       0.00012300      -0.00011600       0.01789800
C        0.71010000       1.23001000      13.96965000       0.00114700      -0.00198600       0.01492500
C        2.84055000       0.00000000      13.93421000       0.00003900      -0.00016500       0.01789800
C        0.00000000       0.00000000      10.08093000      -0.01141500      -0.02064700      -0.01505900
C       -0.00002000       2.45999000      10.08084000      -0.01128300       0.01954200      -0.01493700
C        2.13042000       1.22997000      10.08093000       0.02358800      -0.00043800      -0.01505900
C        3.55067000       1.22997000      10.08138000      -0.02410800       0.00112100      -0.01353300
C        1.42025000       0.00000000      10.08146000       0.01183500      -0.02049900      -0.01365600
C        1.42030000       2.45995000      10.08138000       0.01108300       0.02143900      -0.01353300
Li       0.70963000       1.23083000      11.85252000       0.00016500      -0.00028600      -0.00185900
13
Lattice="4.260799885 0.0 0.0 -2.130399942 3.689960941 0.0 0.0 0.0 24.0" Properties=species:S:1:pos:R:3:forces:R:3 stress="-0.014902533022906036 2.3842564860874046e-06 -5.342731811756068e-06 2.3842564860874046e-06 -0.01490528552843055 9.249916524558988e-06 -5.342731811756068e-06 9.249916524558988e-06 0.0027108496926083717" free_energy=-113.28549468 energy=-113.28488127 pbc="T T T"
C        0.00000000       0.00000000      13.92974000      -0.09062300      -0.15495700       0.02766700
C       -0.00002000       2.45999000      13.92973000      -0.09037200       0.15652900       0.02766800
C        2.13042000       1.22997000      13.92974000       0.17950800       0.00100300       0.02766700
C        2.84053000       2.45999000      13.92289000      -0.00001200      -0.00001000       0.02509700
C        0.71010000       1.23001000      13.96084000       0.00114100      -0.00197700       0.00487400
C        2.84055000       0.00000000      13.92289000       0.00001400       0.00000500       0.02509700
C        0.00000000       0.00000000      10.09126000      -0.01288200      -0.02306000      -0.00946200
C       -0.00002000       2.45999000      10.09113000      -0.01291800       0.02237500      -0.00927000
C        2.13042000       1.22997000      10.09126000       0.02641200      -0.00037300      -0.00946200
C        3.55067000       1.22997000      10.09188000      -0.02757100       0.00124800      -0.03132700
C        1.42025000       0.00000000      10.09200000       0.01329100      -0.02302100      -0.03153700
C        1.42030000       2.45995000      10.09188000       0.01270500       0.02450100      -0.03132700
Li       0.70948000       1.23109000      11.85476000       0.00130800      -0.00226500      -0.01568400
13
Lattice="4.260799885 0.0 0.0 -2.130399942 3.689960941 0.0 0.0 0.0 24.0" Properties=species:S:1:pos:R:3:forces:R:3 stress="-0.015541900734743267 5.30528275700077e-07 -1.0985056061554536e-06 5.30528275700077e-07 -0.015542512402637603 1.903660283394394e-06 -1.0985056061554536e-06 1.903660283394394e-06 0.003273659053507517" free_energy=-113.28873222 energy=-113.28811055 pbc="T T T"
C        0.00000000       0.00000000      13.94706000      -0.09040000      -0.15638000       0.01061300
C       -0.00002000       2.45999000      13.94705000      -0.09015500       0.15615200       0.01062300
C        2.13042000       1.22997000      13.94706000       0.18062900       0.00009900       0.01061300
C        2.84053000       2.45999000      13.94105000       0.00055200      -0.00080900       0.01834700
C        0.71010000       1.23001000      13.97543000       0.00152600      -0.00264300       0.00267500
C        2.84055000       0.00000000      13.94105000       0.00042500      -0.00088200       0.01834700
C        0.00000000       0.00000000      10.07443000      -0.00999200      -0.01954200      -0.00626400
C       -0.00002000       2.45999000      10.07437000      -0.00974100       0.01687200       0.00339400
C        2.13042000       1.22997000      10.07443000       0.02192000      -0.00111800      -0.00626400
C        3.55067000       1.22997000      10.07548000      -0.02404400       0.00854600      -0.02165800
C        1.42025000       0.00000000      10.07554000       0.01410300      -0.02442700      -0.02179700
C        1.42030000       2.45995000      10.07548000       0.00462200       0.02509600      -0.02165800
Li       0.70970000       1.23072000      11.85157000       0.00055600      -0.00096300       0.00302900
13