13
Lattice="4.260799885 0.0 0.0 -2.130399942 3.689960941 0.0 0.0 0.0 24.0" Properties=species:S:1:pos:R:3:forces:R:3 stress="-0.013948393522832262 1.909901792520277e-06 -1.7476225552473123e-07 1.909901792520277e-06 -0.013950596775553699 2.995924380423964e-07 -1.7476225552473123e-07 2.995924380423964e-07 -0.04558066136524666" free_energy=-110.9581991 energy=-110.95538635 pbc="T T T"
C        0.00000000       0.00000000      13.50000000      -0.15108300      -0.26076200       0.48402100
C       -0.00002000       2.45999000      13.50000000      -0.15090000       0.26136700       0.48412600
C        2.13042000       1.22997000      13.50000000       0.30136800       0.00046000       0.48402100
C        2.84053000       2.45999000      13.50000000       0.00014400       0.00030000       0.22275800
C        0.71010000       1.23001000      13.50000000       0.00073500      -0.00127300       7.73277000
C        2.84055000       0.00000000      13.50000000      -0.00033200       0.00002500       0.22275800
C        0.00000000       0.00000000      10.50000000      -0.12231900      -0.21195700      -0.49846900
C       -0.00002000       2.45999000      10.50000000      -0.12172100       0.21082700      -0.49851600
C        2.13042000       1.22997000      10.50000000       0.24471900      -0.00004700      -0.49846900
C        3.55067000       1.22997000      10.50000000      -0.23823500       0.00105900      -0.47552500
C        1.42025000       0.00000000      10.50000000       0.11937900      -0.20677000      -0.47547000
C        1.42030000       2.45995000      10.50000000       0.11820100       0.20684700      -0.47552500
Li       0.71010000       1.23001000      12.00000000       0.00004300      -0.00007500      -6.70848000
13
Lattice="4.260799885 0.0 0.0 -2.130399942 3.689960941 0.0 0.0 0.0 24.0" Properties=species:S:1:pos:R:3:forces:R:3 stress="-0.016450820501200013 9.5432674534755e-06 -1.1546791882884029e-06 9.5432674534755e-06 -0.0164618367648072 2.003524429408526e-06 -1.1546791882884029e-06 2.003524429408526e-06 -0.015788309273524013" free_energy=-111.15908066 energy=-111.15684324 pbc="T T T"
C        0.00000000       0.00000000      13.52335000       0.15954800       0.27772100       1.88386600
C       -0.00002000       2.45999000      13.52336000       0.15984800      -0.27686400       1.88366900
C        2.13042000       1.22997000      13.52335000      -0.32028800       0.00068800       1.88386600
C        2.84053000       2.45999000      13.51075000       0.00021800       0.00012300      -0.06289500
C        0.71010000       1.23001000      13.87305000       0.00072500      -0.00125500      -4.24136500
C        2.84055000       0.00000000      13.51075000      -0.00021600      -0.00012700      -0.06289500
C        0.00000000       0.00000000      10.47595000      -0.41407100      -0.71420400      -0.93426300
C       -0.00002000       2.45999000      10.47595000      -0.41075800       0.71145400      -0.93411600
C        2.13042000       1.22997000      10.47595000       0.82555400       0.00149400      -0.93426300
C        3.55067000       1.22997000      10.47706000      -0.82439000       0.00101100      -0.94326800
C        1.42025000       0.00000000      10.47706000       0.41243400      -0.71435700      -0.94312400
C        1.42030000       2.45995000      10.47706000       0.41131900       0.71444800      -0.94326800
Li       0.71011000       1.23001000      11.67637000       0.00007700      -0.00013300       4.34805600
13
Lattice="4.260799885 0.0 0.0 -2.130399942 3.689960941 0.0 0.0 0.0 24.0" Properties=species:S:1:pos:R:3:forces:R:3 stress="-0.015665563755054387 1.928626319897927e-06 -6.990490220989249e-07 1.928626319897927e-06 -0.01566779197381233 1.2170942795472352e-06 -6.990490220989249e-07 1.2170942795472352e-06 -0.018833298157186543" free_energy=-112.17655972 energy=-112.17394471 pbc="T T T"
C        0.00000000       0.00000000      13.57782000      -0.05271600      -0.09027000       0.39963400
C       -0.00002000       2.45999000      13.57781000      -0.05248500       0.09090600       0.39957700
C        2.13042000       1.22997000      13.57782000       0.10453400       0.00051800       0.39963400
C        2.84053000       2.45999000      13.50893000       0.00016100       0.00024500       0.90803800
C        0.71010000       1.23001000      13.75043000       0.00076300      -0.00132200      -0.91281400
C        2.84055000       0.00000000      13.50893000      -0.00029300      -0.00001700       0.90803800
C        0.00000000       0.00000000      10.44894000      -0.22464100      -0.38900100      -0.66133300
C       -0.00002000       2.45999000      10.44894000      -0.22403700       0.38804400      -0.66139300
C        2.13042000       1.22997000      10.44894000       0.44920500       0.00004500      -0.66133300
C        3.55067000       1.22997000      10.44979000      -0.44475500       0.00098400      -0.60783700
C        1.42025000       0.00000000      10.44980000       0.22269600      -0.38572100      -0.60781200
C        1.42030000       2.45995000      10.44979000       0.22152600       0.38566100      -0.60783700
Li       0.71011000       1.23000000      11.80207000       0.00004200      -0.00007300       1.70543800
13
Lattice="4.260799885 0.0 0.0 -2.130399942 3.689960941 0.0 0.0 0.0 24.0" Properties=species:S:1:pos:R:3:forces:R:3 stress="-0.01542753132152058 2.1033885754226582e-06 -5.554943122036099e-07 2.1033885754226582e-06 -0.01542995926857055 9.611924053860218e-07 -5.554943122036099e-07 9.611924053860218e-07 -0.018543985484674477" free_energy=-112.39242501 energy=-112.38987315 pbc="T T T"
C        0.00000000       0.00000000      13.58552000      -0.06689500      -0.11484700       0.62052500
C       -0.00002000       2.45999000      13.58551000      -0.06667100       0.11547800       0.62050000
C        2.13042000       1.22997000      13.58552000       0.13290800       0.00051000       0.62052500
C        2.84053000       2.45999000      13.54941000       0.00015500       0.00025300       0.45546800
C        0.71010000       1.23001000      13.73251000       0.00076300      -0.00132200      -0.21416500
C        2.84055000       0.00000000      13.54941000      -0.00029700      -0.00000800       0.45546800
C        0.00000000       0.00000000      10.42465000      -0.16043200      -0.27781700      -0.50204800
C       -0.00002000       2.45999000      10.42464000      -0.15981400       0.27680600      -0.50204700
C        2.13042000       1.22997000      10.42465000       0.32081300       0.00002900      -0.50204800
C        3.55067000       1.22997000      10.42791000      -0.32099800       0.00101000      -0.53532900
C        1.42025000       0.00000000      10.42791000       0.16081600      -0.27854200      -0.53533600
C        1.42030000       2.45995000      10.42791000       0.15962500       0.27849800      -0.53532900
Li       0.71011000       1.23000000      11.85447000       0.00002800      -0.00004900       0.55381800
13
Lattice="4.260799885 0.0 0.0 -2.130399942 3.689960941 0.0 0.0 0.0 24.0" Properties=species:S:1:pos:R:3:forces:R:3 stress="-0.013707633549810442 3.3329658732216603e-06 -5.617358213294932e-08 3.3329658732216603e-06 -0.013711478319431984 9.986414601413215e-08 -5.617358213294932e-08 9.986414601413215e-08 -0.0164853485296844" free_energy=-112.66239731 energy=-112.66141476 pbc="T T T"
C        0.00000000       0.00000000      13.69408000      -0.11120600      -0.19128300       0.09977800
C       -0.00002000       2.45999000      13.69408000      -0.11098400       0.19223000       0.09985000
C        2.13042000       1.22997000      13.69408000       0.22125900       0.00066600       0.09977800
C        2.84053000       2.45999000      13.68123000       0.00022700       0.00010600       0.20988500
C        0.71010000       1.23001000      13.70814000       0.00084000      -0.00145500       2.89344000
C        2.84055000       0.00000000      13.68123000      -0.00020500      -0.00014400       0.20988500
C        0.00000000       0.00000000      10.31113000      -0.04021400      -0.06993700      -0.21184900
C       -0.00002000       2.45999000      10.31112000      -0.03957500       0.06854600      -0.21177400
C        2.13042000       1.22997000      10.31113000       0.08067400      -0.00014200      -0.21184900
C        3.55067000       1.22997000      10.31101000      -0.07835100       0.00119200      -0.17078800
C        1.42025000       0.00000000      10.31102000       0.03937000      -0.06819200      -0.17082900
C        1.42030000       2.45995000      10.31101000       0.03814300       0.06845000      -0.17078800
Li       0.71012000       1.22999000      11.98074000       0.00002100      -0.00003700      -2.46473800
13
Lattice="4.260799885 0.0 0.0 -2.130399942 3.689960941 0.0 0.0 0.0 24.0" Properties=species:S:1:pos:R:3:forces:R:3 stress="-0.01504000850291274 2.5652602507380192e-06 -4.181811114341783e-07 2.5652602507380192e-06 -0.015042966978238408 7.302565677283412e-07 -4.181811114341783e-07 7.302565677283412e-07 -0.01473361281992313" free_energy=-112.6483247 energy=-112.64634705 pbc="T T T"
C        0.00000000       0.00000000      13.63498000      -0.07715600      -0.13250400       0.40166800
C       -0.00002000       2.45999000      13.63497000      -0.07692600       0.13324000       0.40165100
C        2.13042000       1.22997000      13.63498000       0.15333000       0.00056700       0.40166800
C        2.84053000       2.45999000      13.60074000       0.00017900       0.00020300       0.41520600
C        0.71010000       1.23001000      13.75352000       0.00079300      -0.00137400       0.15223500
C        2.84055000       0.00000000      13.60074000      -0.00026500      -0.00005400       0.41520600
C        0.00000000       0.00000000      10.37626000      -0.11193800      -0.19392100      -0.37260800
C       -0.00002000       2.45999000      10.37626000      -0.11130800       0.19279000      -0.37258500
C        2.13042000       1.22997000      10.37626000       0.22390900      -0.00001900      -0.37260800
C        3.55067000       1.22997000      10.37827000      -0.22243600       0.00106800      -0.36903400
C        1.42025000       0.00000000      10.37827000       0.11150500      -0.19313300      -0.36905400
C        1.42030000       2.45995000      10.37827000       0.11029300       0.19316900      -0.36903400
Li       0.71011000       1.23000000      11.87648000       0.00001800      -0.00003100       0.03728900
13
Lattice="4.260799885 0.0 0.0 -2.130399942 3.689960941 0.0 0.0 0.0 24.0" Properties=species:S:1:pos:R:3:forces:R:3 stress="-0.015184898895760995 2.7212979788851005e-06 -3.7449054755299545e-07 2.7212979788851005e-06 -0.01518804461636044 6.491169490918587e-07 -3.7449054755299545e-07 6.491169490918587e-07 -0.013632148738442009" free_energy=-112.73606558 energy=-112.73433332 pbc="T T T"
C        0.00000000       0.00000000      13.65625000      -0.08017200      -0.13767600       0.35591100
C       -0.00002000       2.45999000      13.65624000      -0.07994100       0.13846300       0.35590400
C        2.13042000       1.22997000      13.65625000       0.15931700       0.00059300       0.35591100
C        2.84053000       2.45999000      13.62377000       0.00018800       0.00018000       0.38032000
C        0.71010000       1.23001000      13.76456000       0.00080800      -0.00139900       0.21986600
C        2.84055000       0.00000000      13.62377000      -0.00025000      -0.00007300       0.38032000
C        0.00000000       0.00000000      10.35585000      -0.09946100      -0.17236100      -0.32969400
C       -0.00002000       2.45999000      10.35585000      -0.09883000       0.17117800      -0.32967900
C        2.13042000       1.22997000      10.35585000       0.19899900      -0.00004500      -0.32969400
C        3.55067000       1.22997000      10.35801000      -0.19800000       0.00108900      -0.35329800
C        1.42025000       0.00000000      10.35802000       0.09926900      -0.17194000      -0.35331700
C        1.42030000       2.45995000      10.35801000       0.09805700       0.17201700      -0.35329800
Li       0.71011000       1.22999000      11.87757000       0.00001600      -0.00002800       0.00075100
13
Lattice="4.260799885 0.0 0.0 -2.130399942 3.689960941 0.0 0.0 0.0 24.0" Properties=species:S:1:pos:R:3:forces:R:3 stress="-0.015355017468496069 3.3204828549698935e-06 -2.2469432853179729e-07 3.3204828549698935e-06 -0.01535885599660849 3.86973565804762e-07 -2.2469432853179729e-07 3.86973565804762e-07 -0.004734571645548255" free_energy=-113.11129378 energy=-113.11050501 pbc="T T T"
C        0.00000000       0.00000000      13.78263000      -0.08142500      -0.13961100       0.22313000
C       -0.00002000       2.45999000      13.78262000      -0.08119000       0.14062500       0.22314500
C        2.13042000       1.22997000      13.78263000       0.16161900       0.00071000       0.22313000
C        2.84053000       2.45999000      13.76442000       0.00024700       0.00007100       0.16636000
C        0.71010000       1.23001000      13.85709000       0.00087300      -0.00151300       0.03474100
C        2.84055000       0.00000000      13.76442000      -0.00018500      -0.00017800       0.16636000
C        0.00000000       0.00000000      10.23485000      -0.04754700      -0.08266200      -0.26050900
C       -0.00002000       2.45999000      10.23485000      -0.04690800       0.08124700      -0.26052600
C        2.13042000       1.22997000      10.23485000       0.09536000      -0.00015400      -0.26050900
C        3.55067000       1.22997000      10.22928000      -0.08922000       0.00120300      -0.07850800
C        1.42025000       0.00000000      10.22927000       0.04480100      -0.07759700      -0.07849500
C        1.42030000       2.45995000      10.22928000       0.04356800       0.07786900      -0.07850800
Li       0.71012000       1.22998000      11.87381000       0.00000600      -0.00001000      -0.01981100
13
Lattice="4.260799885 0.0 0.0 -2.130399942 3.689960941 0.0 0.0 0.0 24.0" Properties=species:S:1:pos:R:3:forces:R:3 stress="-0.015426339193277537 3.4890036013687416e-06 -8.738112776236562e-08 3.4890036013687416e-06 -0.01543036496666373 1.497962190211982e-07 -8.738112776236562e-08 1.497962190211982e-07 -0.000273309443113302" free_energy=-113.24689577 energy=-113.24627259 pbc="T T T"
C        0.00000000       0.00000000      13.87476000      -0.08896500      -0.15261700       0.04038600
C       -0.00002000       2.45999000      13.87476000      -0.08874000       0.15370300       0.04041900
C        2.13042000       1.22997000      13.87476000       0.17665300       0.00073700       0.04038600
C        2.84053000       2.45999000      13.86083000       0.00026500       0.00004400       0.14828000
C        0.71010000       1.23001000      13.91547000       0.00089900      -0.00155700       0.12879300
C        2.84055000       0.00000000      13.86083000      -0.00017100      -0.00020700       0.14828000
C        0.00000000       0.00000000      10.14248000      -0.02120800      -0.03708200      -0.01229500
C       -0.00002000       2.45999000      10.14249000      -0.02056800       0.03562500      -0.01231000
C        2.13042000       1.22997000      10.14248000       0.04271700      -0.00017500      -0.01229500
C        3.55067000       1.22997000      10.14717000      -0.04522700       0.00122600      -0.14365500
C        1.42025000       0.00000000      10.14716000       0.02279100      -0.03947500      -0.14362700
C        1.42030000       2.45995000      10.14717000       0.02155200       0.03978100      -0.14365500
Li       0.71012000       1.22998000      11.86963000       0.00000200      -0.00000300      -0.07870500
13
Lattice="4.260799885 0.0 0.0 -2.130399942 3.689960941 0.0 0.0 0.0 24.0" Properties=species:S:1:pos:R:3:forces:R:3 stress="-0.015300909825883786 3.4890036013687416e-06 -1.1234716426589864e-07 3.4890036013687416e-06 -0.015304929357760856 1.93486782902381e-07 -1.1234716426589864e-07 1.93486782902381e-07 8.943458426478121e-05" free_energy=-113.24942228 energy=-113.2488073 pbc="T T T"
C        0.00000000       0.00000000      13.87452000      -0.08713600      -0.14944000       0.10693000
C       -0.00002000       2.45999000      13.87452000      -0.08691100       0.15053500       0.10694700
C        2.13042000       1.22997000      13.87452000       0.17298600       0.00074200       0.10693000
C        2.84053000       2.45999000      13.86548000       0.00026900       0.00004000       0.06996200
C        0.71010000       1.23001000      13.92003000       0.00090100      -0.00156000       0.02639600
C        2.84055000       0.00000000      13.86548000      -0.00016900      -0.00021300       0.06996200
C        0.00000000       0.00000000      10.14400000      -0.02269900      -0.03966200      -0.10417100
C       -0.00002000       2.45999000      10.14400000      -0.02205900       0.03820700      -0.10418300
C        2.13042000       1.22997000      10.14400000       0.04569800      -0.00017300      -0.10417100
C        3.55067000       1.22997000      10.14248000      -0.04434900       0.00122200      -0.04642000
C        1.42025000       0.00000000      10.14247000       0.02235300      -0.03871600      -0.04640900
C        1.42030000       2.45995000      10.14248000       0.02111700       0.03901800      -0.04642000
Li       0.71012000       1.22998000      11.86602000       0.00000000      -0.00000000      -0.03535200
13
Lattice="4.260799885 0.0 0.0 -2.130399942 3.689960941 0.0 0.0 0.0 24.0" Properties=species:S:1:pos:R:3:forces:R:3 stress="-0.0151075665976913 3.4890036013687416e-06 -9.986414601413215e-08 3.4890036013687416e-06 -0.015111592371077495 1.7476225552473123e-07 -9.986414601413215e-08 1.7476225552473123e-07 0.0003289712214979289" free_energy=-113.2529654 energy=-113.25234907 pbc="T T T"
C        0.00000000       0.00000000      13.87899000      -0.08825400      -0.15137900       0.08675900
C       -0.00002000       2.45999000      13.87899000      -0.08803100       0.15247400       0.08677400
C        2.13042000       1.22997000      13.87899000       0.17522500       0.00074100       0.08675900
C        2.84053000       2.45999000      13.86865000       0.00026900       0.00004200       0.08200500
C        0.71010000       1.23001000      13.92139000       0.00090000      -0.00155900       0.06182900
C        2.84055000       0.00000000      13.86865000      -0.00017100      -0.00021200       0.08200500
C        0.00000000       0.00000000      10.13965000      -0.02187300      -0.03823400      -0.07649800
C       -0.00002000       2.45999000      10.13966000      -0.02123400       0.03677900      -0.07650300
C        2.13042000       1.22997000      10.13965000       0.04404800      -0.00017400      -0.07649800
C        3.55067000       1.22997000      10.14024000      -0.04395000       0.00122100      -0.07566200
C        1.42025000       0.00000000      10.14023000       0.02215300      -0.03837100      -0.07565400
C        1.42030000       2.45995000      10.14024000       0.02091800       0.03867200      -0.07566200
Li       0.71012000       1.22998000      11.86467000      -0.00000000       0.00000000      -0.02965300
13
Lattice="4.260799885 0.0 0.0 -2.130399942 3.689960941 0.0 0.0 0.0 24.0" Properties=species:S:1:pos:R:3:forces:R:3 stress="-0.014695227538798948 3.482762092242858e-06 -7.48981095105991e-08 3.482762092242858e-06 -0.014699253312185143 1.3107169164354844e-07 -7.48981095105991e-08 1.3107169164354844e-07 0.001141565777614922" free_energy=-113.2683909 energy=-113.26777432 pbc="T T T"
C        0.00000000       0.00000000      13.89879000      -0.08975400      -0.15398100       0.01853100
C       -0.00002000       2.45999000      13.89879000      -0.08953600       0.15508200       0.01852100
C        2.13042000       1.22997000      13.89879000       0.17822800       0.00073900       0.01853100
C        2.84053000       2.45999000      13.88697000       0.00026900       0.00004300       0.12485500
C        0.71010000       1.23001000      13.93499000       0.00090200      -0.00156200       0.05934200
C        2.84055000       0.00000000      13.88697000      -0.00017200      -0.00021200       0.12485500
C        0.00000000       0.00000000      10.12213000      -0.01924100      -0.03367600      -0.05012200
C       -0.00002000       2.45999000      10.12213000      -0.01859900       0.03221400      -0.05012000
C        2.13042000       1.22997000      10.12213000       0.03878400      -0.00017500      -0.05012200
C        3.55067000       1.22997000      10.12350000      -0.03921400       0.00122400      -0.07130800
C        1.42025000       0.00000000      10.12350000       0.01978700      -0.03427100      -0.07131600
C        1.42030000       2.45995000      10.12350000       0.01854700       0.03457200      -0.07130800
Li       0.71012000       1.22998000      11.85780000      -0.00000100       0.00000200      -0.00034000
13
Lattice="4.260799885 0.0 0.0 -2.130399942 3.689960941 0.0 0.0 0.0 24.0" Properties=species:S:1:pos:R:3:forces:R:3 stress="-0.015066378878969595 3.495245110494625e-06 -4.9932073007066075e-08 3.495245110494625e-06 -0.015070417135374044 8.738112776236562e-08 -4.9932073007066075e-08 8.738112776236562e-08 0.0019750943553401277" free_energy=-113.28195901 energy=-113.28134484 pbc="T T T"
C        0.00000000       0.00000000      13.92134000      -0.09073700      -0.15567600       0.03186600
C       -0.00002000       2.45999000      13.92134000      -0.09052100       0.15678700       0.03183100
C        2.13042000       1.22997000      13.92134000       0.18018800       0.00074200       0.03186600
C        2.84053000       2.45999000      13.91424000       0.00027300       0.00004100       0.02877700
C        0.71010000       1.23001000      13.95254000       0.00090700      -0.00157100       0.02854300
C        2.84055000       0.00000000      13.91424000      -0.00017200      -0.00021600       0.02877700
C        0.00000000       0.00000000      10.09979000      -0.01603800      -0.02812800      -0.01764900
C       -0.00002000       2.45999000      10.09979000      -0.01539900       0.02667100      -0.01763000
C        2.13042000       1.22997000      10.09979000       0.03237900      -0.00017400      -0.01764900
C        3.55067000       1.22997000      10.10181000      -0.03318800       0.00122100      -0.05504900
C        1.42025000       0.00000000      10.10181000       0.01677400      -0.02905300      -0.05507500
C        1.42030000       2.45995000      10.10181000       0.01553700       0.02935200      -0.05504900
Li       0.71012000       1.22998000      11.85017000      -0.00000300       0.00000600       0.03644000
13
Lattice="4.260799885 0.0 0.0 -2.130399942 3.689960941 0.0 0.0 0.0 24.0" Properties=species:S:1:pos:R:3:forces:R:3 stress="-0.015264041231477196 3.495245110494625e-06 -4.369056388118281e-08 3.495245110494625e-06 -0.01526807948788164 7.48981095105991e-08 -4.369056388118281e-08 7.48981095105991e-08 0.0029183861125531164" free_energy=-113.28710468 energy=-113.28649027 pbc="T T T"
C        0.00000000       0.00000000      13.93956000      -0.09163200      -0.15722700       0.00800900
C       -0.00002000       2.45999000      13.93956000      -0.09142000       0.15834400       0.00797900
C        2.13042000       1.22997000      13.93956000       0.18197900       0.00074200       0.00800900
C        2.84053000       2.45999000      13.93361000       0.00027500       0.00003700       0.01290700
C        0.71010000       1.23001000      13.96629000       0.00091000      -0.00157600       0.02660100
C        2.84055000       0.00000000      13.93361000      -0.00016900      -0.00021900       0.01290700
C        0.00000000       0.00000000      10.08341000      -0.01325900      -0.02331100      -0.02424300
C       -0.00002000       2.45999000      10.08341000      -0.01261700       0.02185400      -0.02423100
C        2.13042000       1.22997000      10.08341000       0.02681800      -0.00017300      -0.02424300
C        3.55067000       1.22997000      10.08346000      -0.02665100       0.00122700      -0.01012400
C        1.42025000       0.00000000      10.08346000       0.01350600      -0.02339400      -0.01014500
C        1.42030000       2.45995000      10.08346000       0.01226300       0.02369400      -0.01012400
Li       0.71012000       1.22998000      11.84720000      -0.00000300       0.00000500       0.02669700
13
Lattice="4.260799885 0.0 0.0 -2.130399942 3.689960941 0.0 0.0 0.0 24.0" Properties=species:S:1:pos:R:3:forces:R:3 stress="-0.015224270335327066 3.495245110494625e-06 -4.9932073007066075e-08 3.495245110494625e-06 -0.015228308591731514 8.738112776236562e-08 -4.9932073007066075e-08 8.738112776236562e-08 0.003204696619175633" free_energy=-113.28805372 energy=-113.28743637 pbc="T T T"
C        0.00000000       0.00000000      13.94433000      -0.09144400      -0.15690000       0.02162500
C       -0.00002000       2.45999000      13.94433000      -0.09123100       0.15801700       0.02160700
C        2.13042000       1.22997000      13.94433000       0.18160100       0.00074300       0.02162500
C        2.84053000       2.45999000      13.93901000       0.00027300       0.00003600       0.00434500
C        0.71010000       1.23001000      13.97107000       0.00091100      -0.00157800       0.01932700
C        2.84055000       0.00000000      13.93901000      -0.00016800      -0.00021900       0.00434500
C        0.00000000       0.00000000      10.07795000      -0.01210700      -0.02131600      -0.01427400
C       -0.00002000       2.45999000      10.07796000      -0.01146700       0.01986100      -0.01426800
C        2.13042000       1.22997000      10.07795000       0.02451300      -0.00017300      -0.01427400
C        3.55067000       1.22997000      10.07882000      -0.02474500       0.00122400      -0.02283800
C        1.42025000       0.00000000      10.07882000       0.01255300      -0.02174300      -0.02284700
C        1.42030000       2.45995000      10.07882000       0.01131200       0.02204200      -0.02283800
Li       0.71012000       1.22998000      11.84760000      -0.00000200       0.00000400       0.01846700
13
Lattice="4.260799885 0.0 0.0 -2.130399942 3.689960941 0.0 0.0 0.0 24.0" Properties=species:S:1:pos:R:3:forces:R:3 stress="-0.015114650710549177 3.495245110494625e-06 -4.9932073007066075e-08 3.495245110494625e-06 -0.015118688966953623 8.738112776236562e-08 -4.9932073007066075e-08 8.738112776236562e-08 0.0031387301092241733" free_energy=-113.28763599 energy=-113.28701948 pbc="T T T"
C        0.00000000       0.00000000      13.94213000      -0.09137600      -0.15678300       0.01428200
C       -0.00002000       2.45999000      13.94213000      -0.09116300       0.15789900       0.01426700
C        2.13042000       1.22997000      13.94213000       0.18146600       0.00074200       0.01428200
C        2.84053000       2.45999000      13.93624000       0.00027300       0.00003600       0.01400900
C        0.71010000       1.23001000      13.96935000       0.00091000      -0.00157700       0.01952500
C        2.84055000       0.00000000      13.93624000      -0.00016800      -0.00021900       0.01400900
C        0.00000000       0.00000000      10.08024000      -0.01236000      -0.02175500      -0.01682600
C       -0.00002000       2.45999000      10.08024000      -0.01172100       0.02030100      -0.01682100
C        2.13042000       1.22997000      10.08024000       0.02502100      -0.00017300      -0.01682600
C        3.55067000       1.22997000      10.08086000      -0.02514000       0.00122500      -0.01849000
C        1.42025000       0.00000000      10.08086000       0.01275100      -0.02208600      -0.01849700
C        1.42030000       2.45995000      10.08086000       0.01150900       0.02238500      -0.01849000
Li       0.71012000       1.22998000      11.84849000      -0.00000200       0.00000400       0.01557600
13
Lattice="4.260799885 0.0 0.0 -2.130399942 3.689960941 0.0 0.0 0.0 24.0" Properties=species:S:1:pos:R:3:forces:R:3 stress="-0.01510937039382868 3.495245110494625e-06 -5.617358213294932e-08 3.495245110494625e-06 -0.015113408650233128 9.986414601413215e-08 -5.617358213294932e-08 9.986414601413215e-08 0.003140015860104105" free_energy=-113.28760846 energy=-113.28699212 pbc="T T T"
C        0.00000000       0.00000000      13.94165000      -0.09119800      -0.15647400       0.01721600
C       -0.00002000       2.45999000      13.94165000      -0.09098500       0.15759100       0.01720800
C        2.13042000       1.22997000      13.94165000       0.18110900       0.00074300       0.01721600
C        2.84053000       2.45999000      13.93587000       0.00027300       0.00003600       0.01073700
C        0.71010000       1.23001000      13.96952000       0.00091000      -0.00157700       0.01470300
C        2.84055000       0.00000000      13.93587000      -0.00016800      -0.00021900       0.01073700
C        0.00000000       0.00000000      10.08041000      -0.01217400      -0.02143200      -0.01622400
C       -0.00002000       2.45999000      10.08041000      -0.01153400       0.01997800      -0.01622200
C        2.13042000       1.22997000      10.08041000       0.02464800      -0.00017300      -0.01622400
C        3.55067000       1.22997000      10.08099000      -0.02475100       0.00122500      -0.01677400
C        1.42025000       0.00000000      10.08099000       0.01255600      -0.02174800      -0.01677700
C        1.42030000       2.45995000      10.08099000       0.01131500       0.02204700      -0.01677400
Li       0.71012000       1.22998000      11.84958000      -0.00000200       0.00000300       0.01117700
13