13
Lattice="4.260799885 0.0 0.0 -2.130399942 3.689960941 0.0 0.0 0.0 24.0" Properties=species:S:1:pos:R:3:forces:R:3 stress="-0.014575115937180451 3.220618708955761e-06 -1.6227923727296468e-07 3.220618708955761e-06 -0.014578835876619477 2.871094197906299e-07 -1.6227923727296468e-07 2.871094197906299e-07 -0.023483771708772645" free_energy=-112.32088893 energy=-112.31966531 pbc="T T T"
C        0.00000000       0.00000000      13.65000000      -0.11858600      -0.20409800       0.23102400
C       -0.00002000       2.45999000      13.65000000      -0.11837200       0.20502600       0.23107500
C        2.13042000       1.22997000      13.65000000       0.23604700       0.00064900       0.23102400
C        2.84053000       2.45999000      13.65000000       0.00022000       0.00011900       0.05407000
C        0.71010000       1.23001000      13.65000000       0.00085100      -0.00147300       4.23038000
C        2.84055000       0.00000000      13.65000000      -0.00021300      -0.00013100       0.05407000
C        0.00000000       0.00000000      10.35000000      -0.04748000      -0.08251000      -0.24193600
C       -0.00002000       2.45999000      10.35000000      -0.04686300       0.08116900      -0.24195000
C        2.13042000       1.22997000      10.35000000       0.09519600      -0.00013600      -0.24193600
C        3.55067000       1.22997000      10.35000000      -0.09244600       0.00116900      -0.20238800
C        1.42025000       0.00000000      10.35000000       0.04641800      -0.08039800      -0.20234500
C        1.42030000       2.45995000      10.35000000       0.04521100       0.08064500      -0.20238800
Li       0.71010000       1.23001000      12.00000000       0.00001800      -0.00003100      -3.69870100
13
Lattice="4.260799885 0.0 0.0 -2.130399942 3.689960941 0.0 0.0 0.0 24.0" Properties=species:S:1:pos:R:3:forces:R:3 stress="-0.015290617577335207 2.49036214122742e-06 -6.803244947212751e-07 2.49036214122742e-06 -0.015293501154551364 1.1796452247919358e-06 -6.803244947212751e-07 1.1796452247919358e-06 -0.009246714630377411" free_energy=-112.69238192 energy=-112.69041444 pbc="T T T"
C        0.00000000       0.00000000      13.66115000      -0.00337000      -0.00467400       0.99826300
C       -0.00002000       2.45999000      13.66115000      -0.00314000       0.00543800       0.99816000
C        2.13042000       1.22997000      13.66115000       0.00573300       0.00058100       0.99826300
C        2.84053000       2.45999000      13.65261000       0.00018800       0.00018200      -0.04612400
C        0.71010000       1.23001000      13.85408000       0.00079400      -0.00137500      -1.67783400
C        2.84055000       0.00000000      13.65261000      -0.00025100      -0.00007200      -0.04612400
C        0.00000000       0.00000000      10.33833000      -0.12221000      -0.21173800      -0.38578900
C       -0.00002000       2.45999000      10.33833000      -0.12160500       0.21062700      -0.38581200
C        2.13042000       1.22997000      10.33833000       0.24447500      -0.00003100      -0.38578900
C        3.55067000       1.22997000      10.34024000      -0.24356500       0.00105500      -0.38799800
C        1.42025000       0.00000000      10.34024000       0.12204800      -0.21139400      -0.38794200
C        1.42030000       2.45995000      10.34024000       0.12086900       0.21146100      -0.38799800
Li       0.71011000       1.23001000      11.82156000       0.00003400      -0.00005900       1.09672300
13
Lattice="4.260799885 0.0 0.0 -2.130399942 3.689960941 0.0 0.0 0.0 24.0" Properties=species:S:1:pos:R:3:forces:R:3 stress="-0.014776829029110747 2.8523696705286492e-06 -4.4314714793771134e-07 2.8523696705286492e-06 -0.014780124545929214 7.614641133577575e-07 -4.4314714793771134e-07 7.614641133577575e-07 -0.010531123585847298" free_energy=-112.85388566 energy=-112.85236394 pbc="T T T"
C        0.00000000       0.00000000      13.69493000      -0.07987600      -0.13712900       0.15899800
C       -0.00002000       2.45999000      13.69493000      -0.07964700       0.13795300       0.15896400
C        2.13042000       1.22997000      13.69493000       0.15869500       0.00061000       0.15899800
C        2.84053000       2.45999000      13.65105000       0.00019300       0.00016400       0.54972800
C        0.71010000       1.23001000      13.79730000       0.00082900      -0.00143700       0.00348300
C        2.84055000       0.00000000      13.65105000      -0.00023900      -0.00008500       0.54972800
C        0.00000000       0.00000000      10.32527000      -0.09197600      -0.15947300      -0.31049400
C       -0.00002000       2.45999000      10.32527000      -0.09136200       0.15824300      -0.31050000
C        2.13042000       1.22997000      10.32527000       0.18409500      -0.00008300      -0.31049400
C        3.55067000       1.22997000      10.32710000      -0.18316300       0.00111900      -0.31852700
C        1.42025000       0.00000000      10.32711000       0.09181100      -0.15902100      -0.31851000
C        1.42030000       2.45995000      10.32710000       0.09061300       0.15918300      -0.31852700
Li       0.71011000       1.23001000      11.85868000       0.00002600      -0.00004500       0.30715100
13
Lattice="4.260799885 0.0 0.0 -2.130399942 3.689960941 0.0 0.0 0.0 24.0" Properties=species:S:1:pos:R:3:forces:R:3 stress="-0.014429270593435937 2.952233816542781e-06 -4.056980931824117e-07 2.952233816542781e-06 -0.01443267845741867 6.990490220989249e-07 -4.056980931824117e-07 6.990490220989249e-07 -0.009812251530764567" free_energy=-112.89914726 energy=-112.89779463 pbc="T T T"
C        0.00000000       0.00000000      13.69979000      -0.07794500      -0.13373700       0.31600700
C       -0.00002000       2.45999000      13.69978000      -0.07771700       0.13460900       0.31598600
C        2.13042000       1.22997000      13.69979000       0.15479200       0.00063400       0.31600700
C        2.84053000       2.45999000      13.67240000       0.00020600       0.00014000       0.31621800
C        0.71010000       1.23001000      13.79962000       0.00084200      -0.00145900       0.03533300
C        2.84055000       0.00000000      13.67240000      -0.00022400      -0.00010800       0.31621800
C        0.00000000       0.00000000      10.31375000      -0.08166800      -0.14164700      -0.29101600
C       -0.00002000       2.45999000      10.31375000      -0.08105100       0.14038400      -0.29101100
C        2.13042000       1.22997000      10.31375000       0.16350400      -0.00009600      -0.29101600
C        3.55067000       1.22997000      10.31527000      -0.16235600       0.00113400      -0.28665000
C        1.42025000       0.00000000      10.31528000       0.08140000      -0.14098900      -0.28664800
C        1.42030000       2.45995000      10.31527000       0.08019600       0.14117100      -0.28665000
Li       0.71011000       1.23001000      11.86915000       0.00002100      -0.00003700       0.11722200
13
Lattice="4.260799885 0.0 0.0 -2.130399942 3.689960941 0.0 0.0 0.0 24.0" Properties=species:S:1:pos:R:3:forces:R:3 stress="-0.014621727527332548 1.4792376628343323e-06 -5.30528275700077e-07 1.4792376628343323e-06 -0.014623437700833039 9.175018415048388e-07 -5.30528275700077e-07 9.175018415048388e-07 -0.009280568575876202" free_energy=-112.96581647 energy=-112.96467685 pbc="T T T"
C        0.00000000       0.00000000      13.72108000      -0.08329200      -0.14268300       0.25134700
C       -0.00002000       2.45999000      13.72107000      -0.08305900       0.14386300       0.25134600
C        2.13042000       1.22997000      13.72108000       0.16521300       0.00079100       0.25134700
C        2.84053000       2.45999000      13.69688000       0.00014200       0.00024600       0.27149700
C        0.71010000       1.23001000      13.80670000       0.00077900      -0.00134900       0.17819600
C        2.84055000       0.00000000      13.69688000      -0.00028400       0.00000000       0.27149700
C        0.00000000       0.00000000      10.29256000      -0.06940100      -0.12018600      -0.23720700
C       -0.00002000       2.45999000      10.29256000      -0.06878200       0.11913400      -0.23719900
C        2.13042000       1.22997000      10.29256000       0.13878500       0.00001000      -0.23720700
C        3.55067000       1.22997000      10.29441000      -0.13840800       0.00128600      -0.24549400
C        1.42025000       0.00000000      10.29442000       0.06929700      -0.12002500      -0.24550300
C        1.42030000       2.45995000      10.29441000       0.06809100       0.12050800      -0.24549400
Li       0.71011000       1.23000000      11.87540000       0.00092000      -0.00159300      -0.02712700
13
Lattice="4.260799885 0.0 0.0 -2.130399942 3.689960941 0.0 0.0 0.0 24.0" Properties=species:S:1:pos:R:3:forces:R:3 stress="-0.015450219207193167 1.766347082624962e-06 8.925358050013059e-07 1.766347082624962e-06 -0.01545226018067733 -1.5416527540931647e-06 8.925358050013059e-07 -1.5416527540931647e-06 -0.0064002431859727215" free_energy=-113.06877703 energy=-113.0678922 pbc="T T T"
C        0.00000000       0.00000000      13.76144000      -0.08279100      -0.14221800       0.23792700
C       -0.00002000       2.45999000      13.76144000      -0.08254200       0.14296700       0.23787200
C        2.13042000       1.22997000      13.76144000       0.16456000       0.00059000       0.23792700
C        2.84053000       2.45999000      13.74494000       0.00031600       0.00004400       0.14630800
C        0.71010000       1.23001000      13.83731000       0.00083200      -0.00144200       0.10797100
C        2.84055000       0.00000000      13.74494000      -0.00019600      -0.00025200       0.14630800
C        0.00000000       0.00000000      10.25211000      -0.05388900      -0.09361300      -0.17964400
C       -0.00002000       2.45999000      10.25211000      -0.05307100       0.09192200      -0.17932900
C        2.13042000       1.22997000      10.25211000       0.10801500      -0.00013800      -0.17964400
C        3.55067000       1.22997000      10.25309000      -0.10687600       0.00112200      -0.18384600
C        1.42025000       0.00000000      10.25309000       0.05386900      -0.09330400      -0.18415800
C        1.42030000       2.45995000      10.25309000       0.05246600       0.09311800      -0.18384600
Li       0.71023000       1.22980000      11.87289000      -0.00069500       0.00120300      -0.02384500
13
Lattice="4.260799885 0.0 0.0 -2.130399942 3.689960941 0.0 0.0 0.0 24.0" Properties=species:S:1:pos:R:3:forces:R:3 stress="-0.015539248093364764 3.4515545466134418e-06 8.301207137424734e-07 3.4515545466134418e-06 -0.015543236417696204 -1.4355470989531495e-06 8.301207137424734e-07 -1.4355470989531495e-06 -0.001463758720202142" free_energy=-113.21689551 energy=-113.21625246 pbc="T T T"
C        0.00000000       0.00000000      13.85410000      -0.08900500      -0.15274600       0.04064900
C       -0.00002000       2.45999000      13.85408000      -0.08877200       0.15375800       0.04073700
C        2.13042000       1.22997000      13.85410000       0.17678400       0.00070700       0.04064900
C        2.84053000       2.45999000      13.83787000       0.00030100       0.00009900       0.16611400
C        0.71010000       1.23001000      13.89814000       0.00079800      -0.00138200       0.15885000
C        2.84055000       0.00000000      13.83787000      -0.00023600      -0.00021100       0.16611400
C        0.00000000       0.00000000      10.16645000      -0.02817400      -0.04895800      -0.11335400
C       -0.00002000       2.45999000      10.16649000      -0.02736200       0.04739300      -0.11349900
C        2.13042000       1.22997000      10.16645000       0.05648500      -0.00008000      -0.11335400
C        3.55067000       1.22997000      10.16585000      -0.05527800       0.00124900      -0.07803000
C        1.42025000       0.00000000      10.16581000       0.02796100      -0.04843100      -0.07789800
C        1.42030000       2.45995000      10.16585000       0.02655700       0.04849600      -0.07803000
Li       0.71027000       1.22973000      11.86694000      -0.00006000       0.00010500      -0.03894800
13
Lattice="4.260799885 0.0 0.0 -2.130399942 3.689960941 0.0 0.0 0.0 24.0" Properties=species:S:1:pos:R:3:forces:R:3 stress="-0.014850622391506065 4.893343154692474e-06 1.5603772814708146e-06 4.893343154692474e-06 -0.014856270957264989 -2.7025734515074508e-06 1.5603772814708146e-06 -2.7025734515074508e-06 0.0006027987098686792" free_energy=-113.25865126 energy=-113.25803698 pbc="T T T"
C        0.00000000       0.00000000      13.88397000      -0.08775700      -0.15083100       0.13012200
C       -0.00002000       2.45999000      13.88396000      -0.08753200       0.15161100       0.13019600
C        2.13042000       1.22997000      13.88397000       0.17450200       0.00058500       0.13012200
C        2.84053000       2.45999000      13.87741000       0.00039100      -0.00003400       0.03359400
C        0.71010000       1.23001000      13.92706000       0.00088100      -0.00152500       0.01564300
C        2.84055000       0.00000000      13.87741000      -0.00016600      -0.00035600       0.03359400
C        0.00000000       0.00000000      10.13329000      -0.02086100      -0.03654400      -0.06730200
C       -0.00002000       2.45999000      10.13334000      -0.02003600       0.03470400      -0.06746300
C        2.13042000       1.22997000      10.13329000       0.04207900      -0.00020600      -0.06730200
C        3.55067000       1.22997000      10.13451000      -0.04205700       0.00112300      -0.08385300
C        1.42025000       0.00000000      10.13446000       0.02147100      -0.03718900      -0.08370400
C        1.42030000       2.45995000      10.13451000       0.02005600       0.03698300      -0.08385300
Li       0.71029000       1.22969000      11.86281000      -0.00097000       0.00168000      -0.01979500
13
Lattice="4.260799885 0.0 0.0 -2.130399942 3.689960941 0.0 0.0 0.0 24.0" Properties=species:S:1:pos:R:3:forces:R:3 stress="-0.014915290667559342 9.761720272881416e-06 1.9223848107720436e-06 9.761720272881416e-06 -0.014926562833040686 -3.3267243640957763e-06 1.9223848107720436e-06 -3.3267243640957763e-06 0.0005509005614869599" free_energy=-113.2570935 energy=-113.25647571 pbc="T T T"
C        0.00000000       0.00000000      13.88409000      -0.08921300      -0.15255800       0.06679300
C       -0.00002000       2.45999000      13.88409000      -0.08899100       0.15413600       0.06684100
C        2.13042000       1.22997000      13.88409000       0.17672500       0.00098200       0.06679300
C        2.84053000       2.45999000      13.87306000       0.00015200       0.00034800       0.10176500
C        0.71010000       1.23001000      13.92385000       0.00363300      -0.00629200       0.07988700
C        2.84055000       0.00000000      13.87306000      -0.00037700       0.00004200       0.10176500
C        0.00000000       0.00000000      10.13561000      -0.02169200      -0.03725200      -0.07791700
C       -0.00002000       2.45999000      10.13565000      -0.02091800       0.03623200      -0.07806600
C        2.13042000       1.22997000      10.13561000       0.04310700       0.00015900      -0.07791700
C        3.55067000       1.22997000      10.13616000      -0.04318100       0.00150500      -0.07567600
C        1.42025000       0.00000000      10.13612000       0.02165200      -0.03750200      -0.07553300
C        1.42030000       2.45995000      10.13616000       0.02028700       0.03814800      -0.07567600
Li       0.71025000       1.22976000      11.86243000      -0.00118400       0.00205100      -0.02305700
13
Lattice="4.260799885 0.0 0.0 -2.130399942 3.689960941 0.0 0.0 0.0 24.0" Properties=species:S:1:pos:R:3:forces:R:3 stress="-0.014818466136489516 3.495245110494625e-06 3.62007529301229e-07 3.495245110494625e-06 -0.014822498151384835 -6.241509125883258e-07 3.62007529301229e-07 -6.241509125883258e-07 0.0009721712199384505" free_energy=-113.26117889 energy=-113.26056499 pbc="T T T"
C        0.00000000       0.00000000      13.88811000      -0.08885800      -0.15245200       0.07875000
C       -0.00002000       2.45999000      13.88810000      -0.08863800       0.15352500       0.07878300
C        2.13042000       1.22997000      13.88811000       0.17645700       0.00072700       0.07875000
C        2.84053000       2.45999000      13.87826000       0.00029200       0.00007000       0.07757600
C        0.71010000       1.23001000      13.92774000       0.00085600      -0.00148300       0.05095700
C        2.84055000       0.00000000      13.87826000      -0.00020600      -0.00021800       0.07757600
C        0.00000000       0.00000000      10.13136000      -0.02061900      -0.03597400      -0.06620400
C       -0.00002000       2.45999000      10.13140000      -0.01989700       0.03446300      -0.06638600
C        2.13042000       1.22997000      10.13136000       0.04146500      -0.00013000      -0.06620400
C        3.55067000       1.22997000      10.13196000      -0.04144800       0.00123700      -0.07400800
C        1.42025000       0.00000000      10.13192000       0.02097100      -0.03632200      -0.07383400
C        1.42030000       2.45995000      10.13196000       0.01965200       0.03651400      -0.07400800
Li       0.71021000       1.22984000      11.86147000      -0.00002600       0.00004500      -0.02174800
13
Lattice="4.260799885 0.0 0.0 -2.130399942 3.689960941 0.0 0.0 0.0 24.0" Properties=species:S:1:pos:R:3:forces:R:3 stress="-0.015194885310362408 3.5264526561240406e-06 3.86973565804762e-07 3.5264526561240406e-06 -0.015198954774312485 -6.740829855953919e-07 3.86973565804762e-07 -6.740829855953919e-07 0.0021488766939320955" free_energy=-113.28349781 energy=-113.28288819 pbc="T T T"
C        0.00000000       0.00000000      13.92838000      -0.09212500      -0.15809100      -0.01958200
C       -0.00002000       2.45999000      13.92839000      -0.09191400       0.15920000      -0.01968600
C        2.13042000       1.22997000      13.92838000       0.18297400       0.00073700      -0.01958200
C        2.84053000       2.45999000      13.91850000       0.00029200       0.00005300       0.07863800
C        0.71010000       1.23001000      13.95435000       0.00088500      -0.00153300       0.09447600
C        2.84055000       0.00000000      13.91850000      -0.00019200      -0.00022700       0.07863800
C        0.00000000       0.00000000      10.09730000      -0.01580400      -0.02763100      -0.09611600
C       -0.00002000       2.45999000      10.09724000      -0.01506200       0.02608900      -0.09545400
C        2.13042000       1.22997000      10.09730000       0.03183100      -0.00012900      -0.09611600
C        3.55067000       1.22997000      10.09389000      -0.02976400       0.00124500       0.02290400
C        1.42025000       0.00000000      10.09395000       0.01513400      -0.02621300       0.02225400
C        1.42030000       2.45995000      10.09389000       0.01380400       0.02639900       0.02290400
Li       0.71018000       1.22989000      11.84992000      -0.00005800       0.00010100       0.02672200
13
Lattice="4.260799885 0.0 0.0 -2.130399942 3.689960941 0.0 0.0 0.0 24.0" Properties=species:S:1:pos:R:3:forces:R:3 stress="-0.015222610093899582 3.5389356743758075e-06 6.241509125883258e-07 3.5389356743758075e-06 -0.015226692040867908 -1.0797810787778037e-06 6.241509125883258e-07 -1.0797810787778037e-06 0.002927111742311101" free_energy=-113.28673327 energy=-113.28611806 pbc="T T T"
C        0.00000000       0.00000000      13.93850000      -0.09207400      -0.15802200      -0.02118800
C       -0.00002000       2.45999000      13.93851000      -0.09186800       0.15912100      -0.02125600
C        2.13042000       1.22997000      13.93850000       0.18288800       0.00072700      -0.02118800
C        2.84053000       2.45999000      13.93083000       0.00030600       0.00006700       0.05014400
C        0.71010000       1.23001000      13.96368000       0.00086300      -0.00149500       0.05592500
C        2.84055000       0.00000000      13.93083000      -0.00021000      -0.00023100       0.05014400
C        0.00000000       0.00000000      10.08470000      -0.01314700      -0.02298300      -0.01741400
C       -0.00002000       2.45999000      10.08465000      -0.01236600       0.02141800      -0.01683700
C        2.13042000       1.22997000      10.08470000       0.02647700      -0.00010600      -0.01741400
C        3.55067000       1.22997000      10.08525000      -0.02643700       0.00125900      -0.01704400
C        1.42025000       0.00000000      10.08529000       0.01350800      -0.02339700      -0.01759000
C        1.42030000       2.45995000      10.08525000       0.01212800       0.02352500      -0.01704400
Li       0.71022000       1.22981000      11.84932000      -0.00006800       0.00011700       0.01076400
13
Lattice="4.260799885 0.0 0.0 -2.130399942 3.689960941 0.0 0.0 0.0 24.0" Properties=species:S:1:pos:R:3:forces:R:3 stress="-0.015102922914901645 3.5389356743758075e-06 5.867018578330263e-07 3.5389356743758075e-06 -0.015107004861869971 -1.0111244783930879e-06 5.867018578330263e-07 -1.0111244783930879e-06 0.003059394286725071" free_energy=-113.28732698 energy=-113.28671263 pbc="T T T"
C        0.00000000       0.00000000      13.93979000      -0.09117300      -0.15646200       0.03318700
C       -0.00002000       2.45999000      13.93979000      -0.09096800       0.15756100       0.03315400
C        2.13042000       1.22997000      13.93979000       0.18108600       0.00072700       0.03318700
C        2.84053000       2.45999000      13.93575000       0.00030700       0.00006700      -0.01424100
C        0.71010000       1.23001000      13.96808000       0.00086000      -0.00149000       0.00599600
C        2.84055000       0.00000000      13.93575000      -0.00021200      -0.00023200      -0.01424100
C        0.00000000       0.00000000      10.08187000      -0.01255400      -0.02195900      -0.02100900
C       -0.00002000       2.45999000      10.08185000      -0.01178100       0.02040600      -0.02070500
C        2.13042000       1.22997000      10.08187000       0.02529400      -0.00010700      -0.02100900
C        3.55067000       1.22997000      10.08197000      -0.02504700       0.00125500      -0.00853900
C        1.42025000       0.00000000      10.08198000       0.01280700      -0.02218200      -0.00883300
C        1.42030000       2.45995000      10.08197000       0.01143600       0.02231900      -0.00853900
Li       0.71023000       1.22979000      11.84956000      -0.00005600       0.00009700       0.01159200
13
Lattice="4.260799885 0.0 0.0 -2.130399942 3.689960941 0.0 0.0 0.0 24.0" Properties=species:S:1:pos:R:3:forces:R:3 stress="-0.015109376635337807 3.5389356743758075e-06 5.742188395812598e-07 3.5389356743758075e-06 -0.01511346482381526 -9.986414601413214e-07 5.742188395812598e-07 -9.986414601413214e-07 0.0031281133022010455" free_energy=-113.28763076 energy=-113.28701473 pbc="T T T"
C        0.00000000       0.00000000      13.94177000      -0.09139400      -0.15684500       0.01847500
C       -0.00002000       2.45999000      13.94177000      -0.09118900       0.15794300       0.01845300
C        2.13042000       1.22997000      13.94177000       0.18152900       0.00072700       0.01847500
C        2.84053000       2.45999000      13.93641000       0.00030700       0.00006900       0.00642700
C        0.71010000       1.23001000      13.96900000       0.00085900      -0.00148800       0.02120400
C        2.84055000       0.00000000      13.93641000      -0.00021300      -0.00023200       0.00642700
C        0.00000000       0.00000000      10.08036000      -0.01221900      -0.02138100      -0.01952300
C       -0.00002000       2.45999000      10.08036000      -0.01145100       0.01983300      -0.01931000
C        2.13042000       1.22997000      10.08036000       0.02462600      -0.00010900      -0.01952300
C        3.55067000       1.22997000      10.08068000      -0.02449000       0.00125300      -0.01310200
C        1.42025000       0.00000000      10.08069000       0.01252600      -0.02169600      -0.01330800
C        1.42030000       2.45995000      10.08068000       0.01116000       0.02183600      -0.01310200
Li       0.71023000       1.22979000      11.84975000      -0.00005200       0.00009000       0.00841000
13
Lattice="4.260799885 0.0 0.0 -2.130399942 3.689960941 0.0 0.0 0.0 24.0" Properties=species:S:1:pos:R:3:forces:R:3 stress="-0.015110905805073648 3.532694165249924e-06 5.367697848259602e-07 3.532694165249924e-06 -0.015114987752041975 -9.362263688824888e-07 5.367697848259602e-07 -9.362263688824888e-07 0.00318036721660294" free_energy=-113.28781502 energy=-113.28719777 pbc="T T T"
C        0.00000000       0.00000000      13.94277000      -0.09126300      -0.15661800       0.01548000
C       -0.00002000       2.45999000      13.94277000      -0.09105700       0.15771500       0.01546700
C        2.13042000       1.22997000      13.94277000       0.18126600       0.00072700       0.01548000
C        2.84053000       2.45999000      13.93686000       0.00030600       0.00006800       0.01463000
C        0.71010000       1.23001000      13.97017000       0.00086000      -0.00149000       0.02107200
C        2.84055000       0.00000000      13.93686000      -0.00021200      -0.00023100       0.01463000
C        0.00000000       0.00000000      10.07929000      -0.01192500      -0.02088000      -0.01629100
C       -0.00002000       2.45999000      10.07930000      -0.01116700       0.01934100      -0.01618200
C        2.13042000       1.22997000      10.07929000       0.02404600      -0.00011300      -0.01629100
C        3.55067000       1.22997000      10.07992000      -0.02406000       0.00125000      -0.01808900
C        1.42025000       0.00000000      10.07991000       0.01230400      -0.02131100      -0.01819500
C        1.42030000       2.45995000      10.07992000       0.01094700       0.02146200      -0.01808900
Li       0.71023000       1.22979000      11.85016000      -0.00004500       0.00007900       0.00637500
13
Lattice="4.260799885 0.0 0.0 -2.130399942 3.689960941 0.0 0.0 0.0 24.0" Properties=species:S:1:pos:R:3:forces:R:3 stress="-0.015111548680513613 3.532694165249924e-06 5.30528275700077e-07 3.532694165249924e-06 -0.015115630627481943 -9.237433506307223e-07 5.30528275700077e-07 -9.237433506307223e-07 0.003189910484056416" free_energy=-113.28783845 energy=-113.28722111 pbc="T T T"
C        0.00000000       0.00000000      13.94287000      -0.09124900      -0.15659400       0.01561800
C       -0.00002000       2.45999000      13.94288000      -0.09104300       0.15769200       0.01560700
C        2.13042000       1.22997000      13.94287000       0.18123900       0.00072700       0.01561800
C        2.84053000       2.45999000      13.93694000       0.00030600       0.00006800       0.01514800
C        0.71010000       1.23001000      13.97031000       0.00086100      -0.00149100       0.02079400
C        2.84055000       0.00000000      13.93694000      -0.00021200      -0.00023100       0.01514800
C        0.00000000       0.00000000      10.07919000      -0.01189900      -0.02083600      -0.01664600
C       -0.00002000       2.45999000      10.07919000      -0.01114200       0.01929900      -0.01654700
C        2.13042000       1.22997000      10.07919000       0.02399400      -0.00011300      -0.01664600
C        3.55067000       1.22997000      10.07980000      -0.02400300       0.00125000      -0.01800900
C        1.42025000       0.00000000      10.07979000       0.01227400      -0.02125900      -0.01810600
C        1.42030000       2.45995000      10.07980000       0.01091900       0.02141200      -0.01800900
Li       0.71023000       1.22980000      11.85023000      -0.00004500       0.00007700       0.00602700
13
Lattice="4.260799885 0.0 0.0 -2.130399942 3.689960941 0.0 0.0 0.0 24.0" Properties=species:S:1:pos:R:3:forces:R:3 stress="-0.015108496582551057 3.5389356743758075e-06 6.303924217142091e-07 3.5389356743758075e-06 -0.015112578529519386 -1.0922640970295703e-06 6.303924217142091e-07 -1.0922640970295703e-06 0.0030781749876848535" free_energy=-113.28740378 energy=-113.28678822 pbc="T T T"
C        0.00000000       0.00000000      13.94071000      -0.09149300      -0.15702100       0.01270800
C       -0.00002000       2.45999000      13.94071000      -0.09128900       0.15811600       0.01269000
C        2.13042000       1.22997000      13.94071000       0.18173100       0.00072500       0.01270800
C        2.84053000       2.45999000      13.93501000       0.00031000       0.00007200       0.00943200
C        0.71010000       1.23001000      13.96775000       0.00085400      -0.00147900       0.02470300
C        2.84055000       0.00000000      13.93501000      -0.00021700      -0.00023300       0.00943200
C        0.00000000       0.00000000      10.08157000      -0.01257900      -0.02199500      -0.01656700
C       -0.00002000       2.45999000      10.08157000      -0.01180100       0.02044100      -0.01637200
C        2.13042000       1.22997000      10.08157000       0.02533800      -0.00010400      -0.01656700
C        3.55067000       1.22997000      10.08207000      -0.02527500       0.00125500      -0.01469500
C        1.42025000       0.00000000      10.08207000       0.01292500      -0.02238700      -0.01489000
C        1.42030000       2.45995000      10.08207000       0.01155000       0.02251600      -0.01469500
Li       0.71024000       1.22978000      11.84921000      -0.00005500       0.00009500       0.01211100
13