13
Lattice="4.260799885 0.0 0.0 -2.130399942 3.689960941 0.0 0.0 0.0 24.0" Properties=species:S:1:pos:R:3:forces:R:3 stress="-0.015484210465892727 3.158203617696929e-06 -4.9932073007066075e-08 3.158203617696929e-06 -0.015487861748731369 8.113961863648234e-08 -4.9932073007066075e-08 8.113961863648234e-08 0.004619752843668508" free_energy=-113.20871922 energy=-113.20726466 pbc="T T T"
C        0.00000000       0.00000000      14.00000000      -0.09514200      -0.16360700      -0.06441500
C       -0.00002000       2.45999000      14.00000000      -0.09495500       0.16446600      -0.06439100
C        2.13042000       1.22997000      14.00000000       0.18925900       0.00059200      -0.06441500
C        2.84053000       2.45999000      14.00000000       0.00020000       0.00018700      -0.04159700
C        0.71010000       1.23001000      14.00000000       0.00084400      -0.00146100       0.73658600
C        2.84055000       0.00000000      14.00000000      -0.00026200      -0.00008000      -0.04159700
C        0.00000000       0.00000000      10.00000000       0.01221700       0.02081100       0.07209900
C       -0.00002000       2.45999000      10.00000000       0.01284200      -0.02224300       0.07211200
C        2.13042000       1.22997000      10.00000000      -0.02413100      -0.00017400       0.07209900
C        3.55067000       1.22997000      10.00000000       0.02388700       0.00121900       0.07679000
C        1.42025000       0.00000000      10.00000000      -0.01175900       0.02036800       0.07677800
C        1.42030000       2.45995000      10.00000000      -0.01299900      -0.02007700       0.07679000
Li       0.71010000       1.23001000      12.00000000      -0.00000000       0.00000000      -0.90683900
13
Lattice="4.260799885 0.0 0.0 -2.130399942 3.689960941 0.0 0.0 0.0 24.0" Properties=species:S:1:pos:R:3:forces:R:3 stress="-0.015738133781661036 3.239343236333411e-06 -1.5603772814708145e-07 3.239343236333411e-06 -0.015741872445627438 2.683848924129801e-07 -1.5603772814708145e-07 2.683848924129801e-07 0.005527692693192494" free_energy=-113.25315348 energy=-113.25189455 pbc="T T T"
C        0.00000000       0.00000000      13.99689000      -0.08448700      -0.14507100       0.13851200
C       -0.00002000       2.45999000      13.99689000      -0.08428700       0.14599000       0.13849900
C        2.13042000       1.22997000      13.99689000       0.16787800       0.00063200       0.13851200
C        2.84053000       2.45999000      13.99799000       0.00021500       0.00014800      -0.10844500
C        0.71010000       1.23001000      14.03553000       0.00086100      -0.00149100      -0.00813600
C        2.84055000       0.00000000      13.99799000      -0.00023600      -0.00011200      -0.10844500
C        0.00000000       0.00000000      10.00348000       0.01008800       0.01712500       0.05623900
C       -0.00002000       2.45999000      10.00348000       0.01071100      -0.01855200       0.05624600
C        2.13042000       1.22997000      10.00348000      -0.01987500      -0.00017400       0.05623900
C        3.55067000       1.22997000      10.00370000       0.01970000       0.00121600       0.05707700
C        1.42025000       0.00000000      10.00370000      -0.00966800       0.01674500       0.05707300
C        1.42030000       2.45995000      10.00370000      -0.01090300      -0.01645300       0.05707700
Li       0.71010000       1.23001000      11.95625000       0.00000200      -0.00000300      -0.53044600
13
Lattice="4.260799885 0.0 0.0 -2.130399942 3.689960941 0.0 0.0 0.0 24.0" Properties=species:S:1:pos:R:3:forces:R:3 stress="-0.01604248849116648 3.2955168184663605e-06 -1.497962190211982e-07 3.2955168184663605e-06 -0.016046295811733266 2.559018741612136e-07 -1.497962190211982e-07 2.559018741612136e-07 0.005584315663982507" free_energy=-113.26818537 energy=-113.26706025 pbc="T T T"
C        0.00000000       0.00000000      14.00439000      -0.08713900      -0.14960500      -0.05301400
C       -0.00002000       2.45999000      14.00439000      -0.08693600       0.15057700      -0.05302300
C        2.13042000       1.22997000      14.00439000       0.17313100       0.00066200      -0.05301400
C        2.84053000       2.45999000      13.99213000       0.00022900       0.00011900       0.13371700
C        0.71010000       1.23001000      14.03509000       0.00087700      -0.00151800       0.03012200
C        2.84055000       0.00000000      13.99213000      -0.00021700      -0.00013900       0.13371700
C        0.00000000       0.00000000      10.00652000       0.00776900       0.01311100       0.04154800
C       -0.00002000       2.45999000      10.00652000       0.00839200      -0.01453500       0.04155200
C        2.13042000       1.22997000      10.00652000      -0.01523900      -0.00017300       0.04154800
C        3.55067000       1.22997000      10.00679000       0.01513000       0.00121300       0.04254200
C        1.42025000       0.00000000      10.00679000      -0.00738300       0.01278800       0.04254300
C        1.42030000       2.45995000      10.00679000      -0.00861600      -0.01249600       0.04254200
Li       0.71010000       1.23001000      11.92756000       0.00000200      -0.00000300      -0.39077900
13
Lattice="4.260799885 0.0 0.0 -2.130399942 3.689960941 0.0 0.0 0.0 24.0" Properties=species:S:1:pos:R:3:forces:R:3 stress="-0.016023564235496803 3.3516904005993096e-06 -1.5603772814708145e-07 3.3516904005993096e-06 -0.01602743397115485 2.683848924129801e-07 -1.5603772814708145e-07 2.683848924129801e-07 0.005906433708460216" free_energy=-113.27776631 energy=-113.27677296 pbc="T T T"
C        0.00000000       0.00000000      14.00365000      -0.08714800      -0.14956500       0.02317600
C       -0.00002000       2.45999000      14.00365000      -0.08694000       0.15058400       0.02317200
C        2.13042000       1.22997000      14.00365000       0.17310100       0.00068900       0.02317600
C        2.84053000       2.45999000      13.99706000       0.00024200       0.00009100       0.04189500
C        0.71010000       1.23001000      14.03641000       0.00089000      -0.00154200      -0.07392800
C        2.84055000       0.00000000      13.99706000      -0.00020000      -0.00016400       0.04189500
C        0.00000000       0.00000000      10.00920000       0.00533900       0.00890200       0.03015300
C       -0.00002000       2.45999000      10.00920000       0.00596100      -0.01032600       0.03015200
C        2.13042000       1.22997000      10.00920000      -0.01037900      -0.00017200       0.03015300
C        3.55067000       1.22997000      10.00953000       0.01026800       0.00121400       0.02974900
C        1.42025000       0.00000000      10.00953000      -0.00495200       0.00857800       0.02975200
C        1.42030000       2.45995000      10.00953000      -0.00618500      -0.00828500       0.02974900
Li       0.71011000       1.23001000      11.90234000       0.00000200      -0.00000300      -0.25909400
13
Lattice="4.260799885 0.0 0.0 -2.130399942 3.689960941 0.0 0.0 0.0 24.0" Properties=species:S:1:pos:R:3:forces:R:3 stress="-0.016268037906448523 3.470279073991091e-06 -1.1234716426589864e-07 3.470279073991091e-06 -0.01627204495530734 1.997282920282643e-07 -1.1234716426589864e-07 1.997282920282643e-07 0.005687487809833357" free_energy=-113.28807135 energy=-113.28737917 pbc="T T T"
C        0.00000000       0.00000000      14.00808000      -0.09400000      -0.16132100      -0.02287700
C       -0.00002000       2.45999000      14.00807000      -0.09378600       0.16244100      -0.02286400
C        2.13042000       1.22997000      14.00808000       0.18670800       0.00074600      -0.02287700
C        2.84053000       2.45999000      14.00623000       0.00026900       0.00003400      -0.00561200
C        0.71010000       1.23001000      14.02488000       0.00092200      -0.00159600      -0.05178800
C        2.84055000       0.00000000      14.00623000      -0.00016400      -0.00021600      -0.00561200
C        0.00000000       0.00000000      10.01626000      -0.00275600      -0.00513200       0.02135100
C       -0.00002000       2.45999000      10.01627000      -0.00213500       0.00369900       0.02134500
C        2.13042000       1.22997000      10.01626000       0.00582200      -0.00017900       0.02135100
C        3.55067000       1.22997000      10.01657000      -0.00587700       0.00121900       0.02167900
C        1.42025000       0.00000000      10.01657000       0.00311200      -0.00539000       0.02168400
C        1.42030000       2.45995000      10.01657000       0.00188300       0.00569900       0.02167900
Li       0.71011000       1.23001000      11.83994000       0.00000200      -0.00000400       0.00254200
13
Lattice="4.260799885 0.0 0.0 -2.130399942 3.689960941 0.0 0.0 0.0 24.0" Properties=species:S:1:pos:R:3:forces:R:3 stress="-0.016275190675906787 3.476520583116975e-06 -1.1234716426589864e-07 3.476520583116975e-06 -0.01627920396627473 1.8724527377649773e-07 -1.1234716426589864e-07 1.8724527377649773e-07 0.005501228694498749" free_energy=-113.28835124 energy=-113.28765803 pbc="T T T"
C        0.00000000       0.00000000      14.00695000      -0.09442800      -0.16206200      -0.00870000
C       -0.00002000       2.45999000      14.00695000      -0.09421400       0.16318300      -0.00869200
C        2.13042000       1.22997000      14.00695000       0.18756300       0.00074600      -0.00870000
C        2.84053000       2.45999000      14.00574000       0.00027000       0.00003400      -0.01849900
C        0.71010000       1.23001000      14.02266000       0.00092200      -0.00159700      -0.03323900
C        2.84055000       0.00000000      14.00574000      -0.00016400      -0.00021700      -0.01849900
C        0.00000000       0.00000000      10.01711000      -0.00274700      -0.00511400       0.01782900
C       -0.00002000       2.45999000      10.01711000      -0.00212500       0.00368000       0.01782600
C        2.13042000       1.22997000      10.01711000       0.00580200      -0.00017800       0.01782900
C        3.55067000       1.22997000      10.01743000      -0.00586600       0.00121900       0.01773400
C        1.42025000       0.00000000      10.01743000       0.00310700      -0.00538100       0.01773800
C        1.42030000       2.45995000      10.01743000       0.00187700       0.00568900       0.01773400
Li       0.71011000       1.23001000      11.84139000       0.00000200      -0.00000400      -0.01036000
13
Lattice="4.260799885 0.0 0.0 -2.130399942 3.689960941 0.0 0.0 0.0 24.0" Properties=species:S:1:pos:R:3:forces:R:3 stress="-0.016200248875832306 3.476520583116975e-06 -1.0610565514001541e-07 3.476520583116975e-06 -0.01620426216620025 1.810037646506145e-07 -1.0610565514001541e-07 1.810037646506145e-07 0.005466813013178628" free_energy=-113.28872416 energy=-113.28803702 pbc="T T T"
C        0.00000000       0.00000000      14.00600000      -0.09507200      -0.16317900      -0.01372600
C       -0.00002000       2.45999000      14.00600000      -0.09485900       0.16430100      -0.01372300
C        2.13042000       1.22997000      14.00600000       0.18885300       0.00074600      -0.01372600
C        2.84053000       2.45999000      14.00448000       0.00027000       0.00003400      -0.01676900
C        0.71010000       1.23001000      14.01921000       0.00092200      -0.00159700      -0.00522300
C        2.84055000       0.00000000      14.00448000      -0.00016400      -0.00021700      -0.01676900
C        0.00000000       0.00000000      10.01902000      -0.00337300      -0.00619800       0.01416000
C       -0.00002000       2.45999000      10.01902000      -0.00275000       0.00476400       0.01415900
C        2.13042000       1.22997000      10.01902000       0.00705400      -0.00017800       0.01416000
C        3.55067000       1.22997000      10.01933000      -0.00711400       0.00122000       0.01433800
C        1.42025000       0.00000000      10.01933000       0.00373100      -0.00646200       0.01433900
C        1.42030000       2.45995000      10.01933000       0.00250000       0.00677100       0.01433800
Li       0.71011000       1.23001000      11.83875000       0.00000200      -0.00000400      -0.00555800
13
Lattice="4.260799885 0.0 0.0 -2.130399942 3.689960941 0.0 0.0 0.0 24.0" Properties=species:S:1:pos:R:3:forces:R:3 stress="-0.016108629763373464 3.482762092242858e-06 -9.986414601413215e-08 3.482762092242858e-06 -0.01611264305374141 1.7476225552473123e-07 -9.986414601413215e-08 1.7476225552473123e-07 0.0054975149965688485" free_energy=-113.28891852 energy=-113.28823727 pbc="T T T"
C        0.00000000       0.00000000      14.00484000      -0.09502400      -0.16309400      -0.01549800
C       -0.00002000       2.45999000      14.00484000      -0.09481100       0.16421700      -0.01549800
C        2.13042000       1.22997000      14.00484000       0.18875500       0.00074600      -0.01549800
C        2.84053000       2.45999000      14.00294000       0.00027100       0.00003300      -0.01128600
C        0.71010000       1.23001000      14.01815000       0.00092200      -0.00159700      -0.00145700
C        2.84055000       0.00000000      14.00294000      -0.00016400      -0.00021800      -0.01128600
C        0.00000000       0.00000000      10.02030000      -0.00360400      -0.00659800       0.01176300
C       -0.00002000       2.45999000      10.02030000      -0.00298100       0.00516300       0.01176300
C        2.13042000       1.22997000      10.02030000       0.00751600      -0.00017800       0.01176300
C        3.55067000       1.22997000      10.02063000      -0.00757800       0.00122000       0.01183900
C        1.42025000       0.00000000      10.02063000       0.00396200      -0.00686300       0.01183800
C        1.42030000       2.45995000      10.02063000       0.00273200       0.00717300       0.01183900
Li       0.71011000       1.23001000      11.83866000       0.00000200      -0.00000400      -0.00028100
13
Lattice="4.260799885 0.0 0.0 -2.130399942 3.689960941 0.0 0.0 0.0 24.0" Properties=species:S:1:pos:R:3:forces:R:3 stress="-0.01600684323254856 3.482762092242858e-06 -1.0610565514001541e-07 3.482762092242858e-06 -0.016010869005934757 1.810037646506145e-07 -1.0610565514001541e-07 1.810037646506145e-07 0.00560511237238995" free_energy=-113.2892174 energy=-113.28854133 pbc="T T T"
C        0.00000000       0.00000000      14.00191000      -0.09448700      -0.16216200       0.00142200
C       -0.00002000       2.45999000      14.00191000      -0.09427200       0.16328400       0.00141800
C        2.13042000       1.22997000      14.00191000       0.18768000       0.00074700       0.00142200
C        2.84053000       2.45999000      14.00018000       0.00027200       0.00003200      -0.01008600
C        0.71010000       1.23001000      14.01706000       0.00092100      -0.00159600      -0.02520500
C        2.84055000       0.00000000      14.00018000      -0.00016400      -0.00022000      -0.01008600
C        0.00000000       0.00000000      10.02265000      -0.00378500      -0.00691200       0.00802200
C       -0.00002000       2.45999000      10.02265000      -0.00316200       0.00547600       0.00802300
C        2.13042000       1.22997000      10.02265000       0.00787800      -0.00017800       0.00802200
C        3.55067000       1.22997000      10.02298000      -0.00794200       0.00122100       0.00812400
C        1.42025000       0.00000000      10.02298000       0.00414400      -0.00717800       0.00812400
C        1.42030000       2.45995000      10.02298000       0.00291400       0.00748900       0.00812400
Li       0.71011000       1.23001000      11.83996000       0.00000200      -0.00000400      -0.00732400
13
Lattice="4.260799885 0.0 0.0 -2.130399942 3.689960941 0.0 0.0 0.0 24.0" Properties=species:S:1:pos:R:3:forces:R:3 stress="-0.016061749788328954 3.4890036013687416e-06 -9.986414601413215e-08 3.4890036013687416e-06 -0.01606577556171515 1.6852074639884797e-07 -9.986414601413215e-08 1.6852074639884797e-07 0.0051815261140527565" free_energy=-113.28955253 energy=-113.28888615 pbc="T T T"
C        0.00000000       0.00000000      13.99837000      -0.09503600      -0.16311300      -0.01969800
C       -0.00002000       2.45999000      13.99837000      -0.09482200       0.16423700      -0.01970600
C        2.13042000       1.22997000      13.99837000       0.18877800       0.00074700      -0.01969800
C        2.84053000       2.45999000      13.99585000       0.00027200       0.00003200       0.01478900
C        0.71010000       1.23001000      14.01174000       0.00092100      -0.00159400      -0.00494500
C        2.84055000       0.00000000      13.99585000      -0.00016400      -0.00021900       0.01478900
C        0.00000000       0.00000000      10.02712000      -0.00484100      -0.00874400       0.00471500
C       -0.00002000       2.45999000      10.02712000      -0.00421800       0.00730600       0.00471800
C        2.13042000       1.22997000      10.02712000       0.00999300      -0.00017900       0.00471500
C        3.55067000       1.22997000      10.02747000      -0.01005500       0.00122000       0.00465800
C        1.42025000       0.00000000      10.02747000       0.00520000      -0.00900700       0.00465600
C        1.42030000       2.45995000      10.02747000       0.00397100       0.00931800       0.00465800
Li       0.71011000       1.23001000      11.83768000       0.00000200      -0.00000400       0.00634900
13
Lattice="4.260799885 0.0 0.0 -2.130399942 3.689960941 0.0 0.0 0.0 24.0" Properties=species:S:1:pos:R:3:forces:R:3 stress="-0.01602340195625953 3.482762092242858e-06 -9.986414601413215e-08 3.482762092242858e-06 -0.016027427729645723 1.7476225552473123e-07 -9.986414601413215e-08 1.7476225552473123e-07 0.005320512039267925" free_energy=-113.28948751 energy=-113.2888167 pbc="T T T"
C        0.00000000       0.00000000      13.99946000      -0.09488800      -0.16285700      -0.00416800
C       -0.00002000       2.45999000      13.99946000      -0.09467400       0.16398000      -0.00417000
C        2.13042000       1.22997000      13.99946000       0.18848200       0.00074700      -0.00416800
C        2.84053000       2.45999000      13.99778000       0.00027200       0.00003200      -0.00973400
C        0.71010000       1.23001000      14.01341000       0.00092100      -0.00159500      -0.00926900
C        2.84055000       0.00000000      13.99778000      -0.00016400      -0.00021900      -0.00973400
C        0.00000000       0.00000000      10.02545000      -0.00438000      -0.00794400       0.00653600
C       -0.00002000       2.45999000      10.02545000      -0.00375800       0.00650800       0.00653700
C        2.13042000       1.22997000      10.02545000       0.00907000      -0.00017900       0.00653600
C        3.55067000       1.22997000      10.02579000      -0.00913600       0.00122000       0.00648700
C        1.42025000       0.00000000      10.02579000       0.00474100      -0.00821300       0.00648600
C        1.42030000       2.45995000      10.02579000       0.00351200       0.00852200       0.00648700
Li       0.71011000       1.23001000      11.83895000       0.00000200      -0.00000400       0.00217400
