13
Lattice="4.260799885 0.0 0.0 -2.130399942 3.689960941 0.0 0.0 0.0 24.0" Properties=species:S:1:pos:R:3:forces:R:3 stress="-0.013869244945606938 2.921026270913365e-06 -1.373132007694317e-07 2.921026270913365e-06 -0.01387262160204404 2.4341885590944707e-07 -1.373132007694317e-07 2.4341885590944707e-07 -0.029222864316058802" free_energy=-111.97253203 energy=-111.97085396 pbc="T T T"
C        0.00000000       0.00000000      13.60000000      -0.12706000      -0.21883900       0.29887300
C       -0.00002000       2.45999000      13.60000000      -0.12685100       0.21971200       0.29893400
C        2.13042000       1.22997000      13.60000000       0.25305000       0.00061800       0.29887300
C        2.84053000       2.45999000      13.60000000       0.00021000       0.00014700       0.08290900
C        0.71010000       1.23001000      13.60000000       0.00083400      -0.00144400       5.18936700
C        2.84055000       0.00000000      13.60000000      -0.00023200      -0.00010900       0.08290900
C        0.00000000       0.00000000      10.40000000      -0.06673000      -0.11577000      -0.31261100
C       -0.00002000       2.45999000      10.40000000      -0.06611800       0.11451900      -0.31263400
C        2.13042000       1.22997000      10.40000000       0.13362400      -0.00009500      -0.31261100
C        3.55067000       1.22997000      10.40000000      -0.12980400       0.00112700      -0.26682600
C        1.42025000       0.00000000      10.40000000       0.06512800      -0.11280500      -0.26678000
C        1.42030000       2.45995000      10.40000000       0.06392600       0.11297700      -0.26682600
Li       0.71010000       1.23001000      12.00000000       0.00002300      -0.00003900      -4.51357500
13
Lattice="4.260799885 0.0 0.0 -2.130399942 3.689960941 0.0 0.0 0.0 24.0" Properties=species:S:1:pos:R:3:forces:R:3 stress="-0.015620768444057924 2.0472149932897087e-06 -8.113961863648235e-07 2.0472149932897087e-06 -0.015623133976016636 1.404339553323733e-06 -8.113961863648235e-07 1.404339553323733e-06 -0.011553089565592046" free_energy=-112.36831527 energy=-112.3658782 pbc="T T T"
C        0.00000000       0.00000000      13.61442000       0.03471500       0.06120100       1.19648800
C       -0.00002000       2.45999000      13.61442000       0.03495000      -0.06053500       1.19637000
C        2.13042000       1.22997000      13.61442000      -0.07035900       0.00053600       1.19648800
C        2.84053000       2.45999000      13.60400000       0.00017600       0.00021600      -0.06654800
C        0.71010000       1.23001000      13.85035000       0.00075800      -0.00131300      -2.36961700
C        2.84055000       0.00000000      13.60400000      -0.00027500      -0.00004500      -0.06654800
C        0.00000000       0.00000000      10.38492000      -0.18618400      -0.32242900      -0.50014300
C       -0.00002000       2.45999000      10.38492000      -0.18558300       0.32143900      -0.50017800
C        2.13042000       1.22997000      10.38492000       0.37232400       0.00002600      -0.50014300
C        3.55067000       1.22997000      10.38713000      -0.37161500       0.00100200      -0.50634600
C        1.42025000       0.00000000      10.38713000       0.18610700      -0.32234600      -0.50626600
C        1.42030000       2.45995000      10.38713000       0.18494000       0.32233000      -0.50634600
Li       0.71011000       1.23001000      11.78225000       0.00004700      -0.00008200       1.93279000
13
Lattice="4.260799885 0.0 0.0 -2.130399942 3.689960941 0.0 0.0 0.0 24.0" Properties=species:S:1:pos:R:3:forces:R:3 stress="-0.015285174981377435 2.534052705108603e-06 -5.30528275700077e-07 2.534052705108603e-06 -0.015288108490666601 9.237433506307223e-07 -5.30528275700077e-07 9.237433506307223e-07 -0.013564902719119743" free_energy=-112.67147054 energy=-112.66946685 pbc="T T T"
C        0.00000000       0.00000000      13.65265000      -0.07403900      -0.12711300       0.23341700
C       -0.00002000       2.45999000      13.65264000      -0.07381100       0.12784500       0.23337600
C        2.13042000       1.22997000      13.65265000       0.14710300       0.00056300       0.23341700
C        2.84053000       2.45999000      13.60187000       0.00017400       0.00020700       0.63876100
C        0.71010000       1.23001000      13.77464000       0.00080100      -0.00138700      -0.18682300
C        2.84055000       0.00000000      13.60187000      -0.00026600      -0.00004700       0.63876100
C        0.00000000       0.00000000      10.36894000      -0.12576100      -0.21787400      -0.40580700
C       -0.00002000       2.45999000      10.36894000      -0.12514800       0.21676200      -0.40580700
C        2.13042000       1.22997000      10.36894000       0.25156500      -0.00002500      -0.40580700
C        3.55067000       1.22997000      10.37095000      -0.25034600       0.00106100      -0.39941500
C        1.42025000       0.00000000      10.37096000       0.12544400      -0.21727600      -0.39939200
C        1.42030000       2.45995000      10.37095000       0.12425500       0.21733700      -0.39941500
Li       0.71011000       1.23001000      11.84400000       0.00003100      -0.00005300       0.62473600
13
Lattice="4.260799885 0.0 0.0 -2.130399942 3.689960941 0.0 0.0 0.0 24.0" Properties=species:S:1:pos:R:3:forces:R:3 stress="-0.015376912682509668 2.6776074150039183e-06 -4.6187167531536115e-07 2.6776074150039183e-06 -0.015380008471036107 8.051546772389402e-07 -4.6187167531536115e-07 8.051546772389402e-07 -0.01321544062316154" free_energy=-112.74329031 energy=-112.74150149 pbc="T T T"
C        0.00000000       0.00000000      13.65879000      -0.07486200      -0.12848900       0.38438000
C       -0.00002000       2.45999000      13.65879000      -0.07463600       0.12927300       0.38435500
C        2.13042000       1.22997000      13.65879000       0.14870600       0.00058800       0.38438000
C        2.84053000       2.45999000      13.62688000       0.00018500       0.00018300       0.35651400
C        0.71010000       1.23001000      13.77318000       0.00081300      -0.00140800       0.00148700
C        2.84055000       0.00000000      13.62688000      -0.00025100      -0.00006800       0.35651400
C        0.00000000       0.00000000      10.35438000      -0.10602300      -0.18372800      -0.34925900
C       -0.00002000       2.45999000      10.35438000      -0.10540500       0.18256800      -0.34925200
C        2.13042000       1.22997000      10.35438000       0.21212500      -0.00004500      -0.34925900
C        3.55067000       1.22997000      10.35665000      -0.21138900       0.00108200      -0.35782200
C        1.42025000       0.00000000      10.35666000       0.10595600      -0.18352100      -0.35782200
C        1.42030000       2.45995000      10.35665000       0.10475800       0.18360900      -0.35782200
Li       0.71011000       1.23001000      11.86357000       0.00002400      -0.00004200       0.25360400
13
Lattice="4.260799885 0.0 0.0 -2.130399942 3.689960941 0.0 0.0 0.0 24.0" Properties=species:S:1:pos:R:3:forces:R:3 stress="-0.014629373376011754 2.8835772161580654e-06 2.2968753583250393e-06 2.8835772161580654e-06 -0.01463270010037585 -3.982082822313519e-06 2.2968753583250393e-06 -3.982082822313519e-06 -0.011290871284195437" free_energy=-112.83925821 energy=-112.83779417 pbc="T T T"
C        0.00000000       0.00000000      13.68341000      -0.08264700      -0.14146500       0.29767200
C       -0.00002000       2.45999000      13.68340000      -0.08241500       0.14274600       0.29766500
C        2.13042000       1.22997000      13.68341000       0.16383600       0.00084200       0.29767200
C        2.84053000       2.45999000      13.65339000       0.00007400       0.00036900       0.35435400
C        0.71010000       1.23001000      13.78036000       0.00234000      -0.00405300       0.25141800
C        2.84055000       0.00000000      13.65339000      -0.00035700       0.00012100       0.35435400
C        0.00000000       0.00000000      10.33019000      -0.08638200      -0.14934100      -0.30227900
C       -0.00002000       2.45999000      10.33018000      -0.08575900       0.14854000      -0.30226900
C        2.13042000       1.22997000      10.33019000       0.17252400       0.00013800      -0.30227900
C        3.55067000       1.22997000      10.33185000      -0.17170800       0.00133700      -0.30767500
C        1.42025000       0.00000000      10.33186000       0.08590500      -0.14879100      -0.30768500
C        1.42030000       2.45995000      10.33185000       0.08469600       0.14937200      -0.30767500
Li       0.71011000       1.23000000      11.87652000      -0.00010600       0.00018400      -0.02327400
13
Lattice="4.260799885 0.0 0.0 -2.130399942 3.689960941 0.0 0.0 0.0 24.0" Properties=species:S:1:pos:R:3:forces:R:3 stress="-0.014530589011076402 1.3856150259460834e-06 -6.303924217142091e-07 1.3856150259460834e-06 -0.014532186837412626 1.0985056061554536e-06 -6.303924217142091e-07 1.0985056061554536e-06 -0.009760303450309841" free_energy=-112.93281412 energy=-112.93158813 pbc="T T T"
C        0.00000000       0.00000000      13.70911000      -0.08046300      -0.13779300       0.28288400
C       -0.00002000       2.45999000      13.70911000      -0.08023200       0.13896600       0.28288900
C        2.13042000       1.22997000      13.70911000       0.15956400       0.00078600       0.28288400
C        2.84053000       2.45999000      13.68463000       0.00013400       0.00025600       0.28304200
C        0.71010000       1.23001000      13.80274000       0.00077600      -0.00134500       0.11218800
C        2.84055000       0.00000000      13.68463000      -0.00028800       0.00001200       0.28304200
C        0.00000000       0.00000000      10.30365000      -0.07439400      -0.12881800      -0.26184100
C       -0.00002000       2.45999000      10.30365000      -0.07378800       0.12780400      -0.26186100
C        2.13042000       1.22997000      10.30365000       0.14875700       0.00001800      -0.26184100
C        3.55067000       1.22997000      10.30479000      -0.14748600       0.00127800      -0.24836100
C        1.42025000       0.00000000      10.30480000       0.07382800      -0.12787400      -0.24833900
C        1.42030000       2.45995000      10.30479000       0.07263600       0.12836500      -0.24836100
Li       0.71010000       1.23002000      11.87533000       0.00095600      -0.00165500       0.00367500
13
Lattice="4.260799885 0.0 0.0 -2.130399942 3.689960941 0.0 0.0 0.0 24.0" Properties=species:S:1:pos:R:3:forces:R:3 stress="-0.015523856531860338 3.457796055739325e-06 1.4605131354566824e-06 3.457796055739325e-06 -0.015527844856191778 -2.5278111959827194e-06 1.4605131354566824e-06 -2.5278111959827194e-06 -0.0016038681170599692" free_energy=-113.21322566 energy=-113.21259651 pbc="T T T"
C        0.00000000       0.00000000      13.84658000      -0.08754200      -0.15048600       0.18799400
C       -0.00002000       2.45999000      13.84658000      -0.08730800       0.15122200       0.18798100
C        2.13042000       1.22997000      13.84658000       0.17409600       0.00057000       0.18799400
C        2.84053000       2.45999000      13.84263000       0.00039900      -0.00002600      -0.00473200
C        0.71010000       1.23001000      13.89546000       0.00084800      -0.00146800       0.11783900
C        2.84055000       0.00000000      13.84263000      -0.00017700      -0.00035900      -0.00473200
C        0.00000000       0.00000000      10.16605000      -0.02618700      -0.04569300      -0.06124900
C       -0.00002000       2.45999000      10.16605000      -0.02528700       0.04379800      -0.06081700
C        2.13042000       1.22997000      10.16605000       0.05266500      -0.00016800      -0.06124900
C        3.55067000       1.22997000      10.16886000      -0.05344300       0.00112800      -0.12051800
C        1.42025000       0.00000000      10.16886000       0.02723700      -0.04717700      -0.12095100
C        1.42030000       2.45995000      10.16886000       0.02574500       0.04684700      -0.12051800
Li       0.71031000       1.22965000      11.87481000      -0.00104700       0.00181300      -0.12704300
13
Lattice="4.260799885 0.0 0.0 -2.130399942 3.689960941 0.0 0.0 0.0 24.0" Properties=species:S:1:pos:R:3:forces:R:3 stress="-0.01464749871851332 3.5264526561240406e-06 9.799169327636717e-07 3.5264526561240406e-06 -0.014651568182463397 -1.7039319913661292e-06 9.799169327636717e-07 -1.7039319913661292e-06 0.0008971482802453336" free_energy=-113.26703648 energy=-113.26642741 pbc="T T T"
C        0.00000000       0.00000000      13.89645000      -0.09089400      -0.15600800       0.02891000
C       -0.00002000       2.45999000      13.89645000      -0.09067700       0.15705600       0.02895100
C        2.13042000       1.22997000      13.89645000       0.18055400       0.00071300       0.02891000
C        2.84053000       2.45999000      13.88664000       0.00031900       0.00009900       0.09682700
C        0.71010000       1.23001000      13.92969000       0.00080400      -0.00139200       0.14254200
C        2.84055000       0.00000000      13.88664000      -0.00024500      -0.00022700       0.09682700
C        0.00000000       0.00000000      10.12383000      -0.01802800      -0.03136100      -0.07456000
C       -0.00002000       2.45999000      10.12385000      -0.01718400       0.02976400      -0.07446100
C        2.13042000       1.22997000      10.12383000       0.03617400      -0.00006800      -0.07456000
C        3.55067000       1.22997000      10.12320000      -0.03531900       0.00126200      -0.04103700
C        1.42025000       0.00000000      10.12318000       0.01800200      -0.03118100      -0.04114400
C        1.42030000       2.45995000      10.12320000       0.01656700       0.03121800      -0.04103700
Li       0.71030000       1.22967000      11.86658000      -0.00007200       0.00012400      -0.07616900
13
Lattice="4.260799885 0.0 0.0 -2.130399942 3.689960941 0.0 0.0 0.0 24.0" Properties=species:S:1:pos:R:3:forces:R:3 stress="-0.014697149923609721 4.8621356090630585e-06 1.591584827100231e-06 4.8621356090630585e-06 -0.014702767281823017 -2.7587470336404003e-06 1.591584827100231e-06 -2.7587470336404003e-06 0.0011469584414996851" free_energy=-113.27010721 energy=-113.26949839 pbc="T T T"
C        0.00000000       0.00000000      13.89831000      -0.08877000      -0.15257700       0.08613600
C       -0.00002000       2.45999000      13.89830000      -0.08855300       0.15337900       0.08616100
C        2.13042000       1.22997000      13.89831000       0.17652100       0.00058800       0.08613600
C        2.84053000       2.45999000      13.89184000       0.00039200      -0.00002900       0.03821900
C        0.71010000       1.23001000      13.93695000       0.00087900      -0.00152200       0.03288000
C        2.84055000       0.00000000      13.89184000      -0.00017100      -0.00035400       0.03821900
C        0.00000000       0.00000000      10.11977000      -0.01777000      -0.03117400      -0.05045400
C       -0.00002000       2.45999000      10.11979000      -0.01693300       0.02932800      -0.05040500
C        2.13042000       1.22997000      10.11977000       0.03588200      -0.00019800      -0.05045400
C        3.55067000       1.22997000      10.12077000      -0.03579500       0.00113200      -0.06152400
C        1.42025000       0.00000000      10.12074000       0.01834500      -0.03177500      -0.06157600
C        1.42030000       2.45995000      10.12077000       0.01691700       0.03156500      -0.06152400
Li       0.71030000       1.22968000      11.86284000      -0.00094400       0.00163500      -0.03181300
13
Lattice="4.260799885 0.0 0.0 -2.130399942 3.689960941 0.0 0.0 0.0 24.0" Properties=species:S:1:pos:R:3:forces:R:3 stress="-0.015032044337268114 3.532694165249924e-06 5.180452574483105e-07 3.532694165249924e-06 -0.015036120042727317 -8.987773141271891e-07 5.180452574483105e-07 -8.987773141271891e-07 0.0029190664370478373" free_energy=-113.28642352 energy=-113.28580698 pbc="T T T"
C        0.00000000       0.00000000      13.93482000      -0.09078800      -0.15580000       0.01970100
C       -0.00002000       2.45999000      13.93482000      -0.09057900       0.15688700       0.01972500
C        2.13042000       1.22997000      13.93482000       0.18032100       0.00072500       0.01970100
C        2.84053000       2.45999000      13.92893000       0.00030800       0.00007300       0.01496200
C        0.71010000       1.23001000      13.96426000       0.00085200      -0.00147600       0.02194400
C        2.84055000       0.00000000      13.92893000      -0.00021700      -0.00023000       0.01496200
C        0.00000000       0.00000000      10.08582000      -0.01206400      -0.02112500      -0.01062100
C       -0.00002000       2.45999000      10.08586000      -0.01131500       0.01959800      -0.01078900
C        2.13042000       1.22997000      10.08582000       0.02432700      -0.00011500      -0.01062100
C        3.55067000       1.22997000      10.08660000      -0.02440900       0.00124500      -0.01534500
C        1.42025000       0.00000000      10.08657000       0.01247100      -0.02160100      -0.01518600
C        1.42030000       2.45995000      10.08660000       0.01112600       0.02176100      -0.01534500
Li       0.71024000       1.22978000      11.85614000      -0.00003300       0.00005700      -0.03308700
13
Lattice="4.260799885 0.0 0.0 -2.130399942 3.689960941 0.0 0.0 0.0 24.0" Properties=species:S:1:pos:R:3:forces:R:3 stress="-0.015528344176921846 3.120754562941629e-07 2.2094942305626736e-06 3.120754562941629e-07 -0.015528699942942021 -3.8260450941664375e-06 2.2094942305626736e-06 -3.8260450941664375e-06 0.0032514517640376242" free_energy=-113.28863262 energy=-113.28801209 pbc="T T T"
C        0.00000000       0.00000000      13.94646000      -0.09040900      -0.15742600       0.02028200
C       -0.00002000       2.45999000      13.94646000      -0.09020200       0.15623400       0.02029300
C        2.13042000       1.22997000      13.94646000       0.18153900      -0.00041600       0.02028200
C        2.84053000       2.45999000      13.94120000       0.00096700      -0.00107600       0.00756600
C        0.71010000       1.23001000      13.97391000       0.00152100      -0.00263400       0.02277800
C        2.84055000       0.00000000      13.94120000       0.00044800      -0.00137500       0.00756600
C        0.00000000       0.00000000      10.07503000      -0.01014600      -0.02009500      -0.01443700
C       -0.00002000       2.45999000      10.07506000      -0.00940200       0.01628400      -0.01454400
C        2.13042000       1.22997000      10.07503000       0.02247600      -0.00126100      -0.01443700
C        3.55067000       1.22997000      10.07562000      -0.02498900       0.01096400      -0.01610500
C        1.42025000       0.00000000      10.07559000       0.01457000      -0.02523600      -0.01585400
C        1.42030000       2.45995000      10.07562000       0.00299900       0.02712400      -0.01610500
Li       0.71023000       1.22979000      11.85238000       0.00062800      -0.00108700      -0.00728500
13
Lattice="4.260799885 0.0 0.0 -2.130399942 3.689960941 0.0 0.0 0.0 24.0" Properties=species:S:1:pos:R:3:forces:R:3 stress="-0.015570617918231453 3.5576602017534576e-06 6.803244947212751e-07 3.5576602017534576e-06 -0.01557471858972716 -1.1734037156660526e-06 6.803244947212751e-07 -1.1734037156660526e-06 0.003449326327855502" free_energy=-113.28887768 energy=-113.28825503 pbc="T T T"
C        0.00000000       0.00000000      13.94807000      -0.09103700      -0.15623600       0.00587400
C       -0.00002000       2.45999000      13.94807000      -0.09083100       0.15732400       0.00588700
C        2.13042000       1.22997000      13.94807000       0.18082300       0.00072200       0.00587400
C        2.84053000       2.45999000      13.94220000       0.00031600       0.00007800       0.01696800
C        0.71010000       1.23001000      13.97553000       0.00084600      -0.00146500       0.01019900
C        2.84055000       0.00000000      13.94220000      -0.00022600      -0.00023400       0.01696800
C        0.00000000       0.00000000      10.07374000      -0.01051800      -0.01840500      -0.01020000
C       -0.00002000       2.45999000      10.07377000      -0.00972900       0.01685100      -0.01021100
C        2.13042000       1.22997000      10.07374000       0.02119800      -0.00009400      -0.01020000
C        3.55067000       1.22997000      10.07425000      -0.02113700       0.00125600      -0.00868500
C        1.42025000       0.00000000      10.07423000       0.01086400      -0.01881700      -0.00872900
C        1.42030000       2.45995000      10.07425000       0.00948100       0.01893300      -0.00868500
Li       0.71026000       1.22974000      11.85189000      -0.00005000       0.00008600      -0.00506200
13
Lattice="4.260799885 0.0 0.0 -2.130399942 3.689960941 0.0 0.0 0.0 24.0" Properties=species:S:1:pos:R:3:forces:R:3 stress="-0.0156115747011155 3.5576602017534576e-06 7.115320403506914e-07 3.5576602017534576e-06 -0.015615681614120332 -1.2358188069248851e-06 7.115320403506914e-07 -1.2358188069248851e-06 0.003572159227452884" free_energy=-113.28962108 energy=-113.28899633 pbc="T T T"
C        0.00000000       0.00000000      13.95295000      -0.09104100      -0.15624500       0.02262100
C       -0.00002000       2.45999000      13.95296000      -0.09083800       0.15733500       0.02262700
C        2.13042000       1.22997000      13.95295000       0.18083300       0.00072200       0.02262100
C        2.84053000       2.45999000      13.94793000       0.00032000       0.00008000       0.00031700
C        0.71010000       1.23001000      13.97995000       0.00084500      -0.00146400       0.00844100
C        2.84055000       0.00000000      13.94793000      -0.00022900      -0.00023700       0.00031700
C        0.00000000       0.00000000      10.06883000      -0.00992000      -0.01736400      -0.01215300
C       -0.00002000       2.45999000      10.06886000      -0.00912600       0.01580700      -0.01214500
C        2.13042000       1.22997000      10.06883000       0.01999800      -0.00009200      -0.01215300
C        3.55067000       1.22997000      10.06942000      -0.01996700       0.00125700      -0.01352900
C        1.42025000       0.00000000      10.06940000       0.01028400      -0.01781200      -0.01358600
C        1.42030000       2.45995000      10.06942000       0.00889400       0.01792000      -0.01352900
Li       0.71027000       1.22973000      11.85058000      -0.00005200       0.00009100       0.00015200
13
Lattice="4.260799885 0.0 0.0 -2.130399942 3.689960941 0.0 0.0 0.0 24.0" Properties=species:S:1:pos:R:3:forces:R:3 stress="-0.015578213834837656 3.5514186926275735e-06 6.678414764695085e-07 3.5514186926275735e-06 -0.01558231450633336 -1.1546791882884029e-06 6.678414764695085e-07 -1.1546791882884029e-06 0.00350630506466569" free_energy=-113.2890038 energy=-113.28838192 pbc="T T T"
C        0.00000000       0.00000000      13.94883000      -0.09101400      -0.15619400       0.01326400
C       -0.00002000       2.45999000      13.94884000      -0.09080900       0.15728500       0.01327100
C        2.13042000       1.22997000      13.94883000       0.18077500       0.00072300       0.01326400
C        2.84053000       2.45999000      13.94344000       0.00031600       0.00007700       0.01361000
C        0.71010000       1.23001000      13.97639000       0.00084800      -0.00146900       0.00721900
C        2.84055000       0.00000000      13.94344000      -0.00022500      -0.00023500       0.01361000
C        0.00000000       0.00000000      10.07283000      -0.01045600      -0.01830400      -0.01138000
C       -0.00002000       2.45999000      10.07285000      -0.00967300       0.01675400      -0.01139000
C        2.13042000       1.22997000      10.07283000       0.02108000      -0.00009700      -0.01138000
C        3.55067000       1.22997000      10.07340000      -0.02105600       0.00125500      -0.01177600
C        1.42025000       0.00000000      10.07338000       0.01082100      -0.01874200      -0.01180100
C        1.42030000       2.45995000      10.07340000       0.00944100       0.01886300      -0.01177600
Li       0.71026000       1.22974000      11.85155000      -0.00004900       0.00008400      -0.00473600
13
Lattice="4.260799885 0.0 0.0 -2.130399942 3.689960941 0.0 0.0 0.0 24.0" Properties=species:S:1:pos:R:3:forces:R:3 stress="-0.015577914242399613 3.5514186926275735e-06 6.491169490918587e-07 3.5514186926275735e-06 -0.015582021155404444 -1.1172301335331033e-06 6.491169490918587e-07 -1.1172301335331033e-06 0.0035100999022142265" free_energy=-113.28901295 energy=-113.28839043 pbc="T T T"
C        0.00000000       0.00000000      13.94888000      -0.09107700      -0.15630300       0.01287400
C       -0.00002000       2.45999000      13.94888000      -0.09087100       0.15739400       0.01287800
C        2.13042000       1.22997000      13.94888000       0.18090100       0.00072300       0.01287400
C        2.84053000       2.45999000      13.94360000       0.00031500       0.00007700       0.01199300
C        0.71010000       1.23001000      13.97627000       0.00084900      -0.00147100       0.00774100
C        2.84055000       0.00000000      13.94360000      -0.00022400      -0.00023400       0.01199300
C        0.00000000       0.00000000      10.07280000      -0.01044500      -0.01829000      -0.01105500
C       -0.00002000       2.45999000      10.07283000      -0.00966600       0.01674200      -0.01106800
C        2.13042000       1.22997000      10.07280000       0.02106200      -0.00009900      -0.01105500
C        3.55067000       1.22997000      10.07336000      -0.02103300       0.00125400      -0.01108000
C        1.42025000       0.00000000      10.07334000       0.01080600      -0.01871600      -0.01108800
C        1.42030000       2.45995000      10.07336000       0.00943000       0.01884200      -0.01108000
Li       0.71026000       1.22975000      11.85142000      -0.00004700       0.00008100      -0.00392800
13
Lattice="4.260799885 0.0 0.0 -2.130399942 3.689960941 0.0 0.0 0.0 24.0" Properties=species:S:1:pos:R:3:forces:R:3 stress="-0.015385419859448246 3.470279073991091e-06 7.24015058602458e-07 3.470279073991091e-06 -0.015389426908307064 -1.2607848434284183e-06 7.24015058602458e-07 -1.2607848434284183e-06 0.003272154849808179" free_energy=-113.28852005 energy=-113.28790089 pbc="T T T"
C        0.00000000       0.00000000      13.94598000      -0.09150300      -0.15751700       0.02821700
C       -0.00002000       2.45999000      13.94598000      -0.09129600       0.15812900       0.02820200
C        2.13042000       1.22997000      13.94598000       0.18216500       0.00048600       0.02821700
C        2.84053000       2.45999000      13.94197000       0.00044100      -0.00018700      -0.00493800
C        0.71010000       1.23001000      13.97225000       0.00101700      -0.00176100       0.03046100
C        2.84055000       0.00000000      13.94197000      -0.00005900      -0.00047500      -0.00493800
C        0.00000000       0.00000000      10.07556000      -0.01200400      -0.01423900      -0.01531700
C       -0.00002000       2.45999000      10.07558000      -0.00466300       0.00807600      -0.01627000
C        2.13042000       1.22997000      10.07556000       0.01833300       0.00327700      -0.01531700
C        3.55067000       1.22997000      10.07619000      -0.02305300       0.00316000      -0.01935000
C        1.42025000       0.00000000      10.07616000       0.01171300      -0.02028800      -0.01934500
C        1.42030000       2.45995000      10.07619000       0.00879000       0.02154400      -0.01935000
Li       0.71020000       1.22984000      11.85059000       0.00011800      -0.00020400      -0.00027000
13
Lattice="4.260799885 0.0 0.0 -2.130399942 3.689960941 0.0 0.0 0.0 24.0" Properties=species:S:1:pos:R:3:forces:R:3 stress="-0.01560373536565339 3.5576602017534576e-06 5.242867665741937e-07 3.5576602017534576e-06 -0.015607842278658222 -9.112603323789556e-07 5.242867665741937e-07 -9.112603323789556e-07 0.003528156588115407" free_energy=-113.28931171 energy=-113.28868888 pbc="T T T"
C        0.00000000       0.00000000      13.95101000      -0.09145400      -0.15695200       0.01854800
C       -0.00002000       2.45999000      13.95102000      -0.09124800       0.15804700       0.01854100
C        2.13042000       1.22997000      13.95101000       0.18165100       0.00072600       0.01854800
C        2.84053000       2.45999000      13.94648000       0.00031100       0.00007200       0.00075500
C        0.71010000       1.23001000      13.97705000       0.00085800      -0.00148600       0.01871900
C        2.84055000       0.00000000      13.94648000      -0.00021800      -0.00023400       0.00075500
C        0.00000000       0.00000000      10.07075000      -0.01027900      -0.01802500      -0.01066700
C       -0.00002000       2.45999000      10.07080000      -0.00952600       0.01649900      -0.01089700
C        2.13042000       1.22997000      10.07075000       0.02074900      -0.00011100      -0.01066700
C        3.55067000       1.22997000      10.07141000      -0.02079000       0.00124500      -0.01375900
C        1.42025000       0.00000000      10.07139000       0.01066300      -0.01846800      -0.01370500
C        1.42030000       2.45995000      10.07141000       0.00931700       0.01862800      -0.01375900
Li       0.71024000       1.22978000      11.85044000      -0.00003400       0.00005800      -0.00241300
13