17
Lattice="4.920000076 0.0 0.0 -2.460000038 4.260845053 0.0 0.0 0.0 24.0" Properties=species:S:1:pos:R:3:forces:R:3 stress="-0.012914425121038442 6.848807963831699e-05 -0.0 6.848807963831699e-05 -0.012835345200413502 -0.0 -0.0 -0.0 0.007359357168819824" free_energy=-150.59625449 energy=-150.59566364 pbc="T T T"
C        0.00000000       0.00000000      14.00000000      -0.19340200      -0.11001700      -0.03867500
C        3.69000000       2.13042000      14.00000000      -0.00141900       0.00081900      -0.08524500
C        2.46000000       0.00000000      14.00000000       0.19055700      -0.11001800      -0.03867700
C        1.23000000       2.13042000      14.00000000      -0.00142400       0.22250000      -0.03867500
C       -0.00005000       1.42031000      14.00000000      -0.19053800       0.11000700      -0.03741700
C       -1.23005000       3.55073000      14.00000000       0.00143000      -0.22248500      -0.03742100
C        2.45995000       1.42031000      14.00000000       0.19339200       0.11000400      -0.03742100
C        1.22995000       3.55073000      14.00000000       0.00141000      -0.00081400      -0.08400200
C        0.00000000       0.00000000      10.00000000      -0.19340200      -0.11001700       0.03867500
C        3.69000000       2.13042000      10.00000000      -0.00141900       0.00081900       0.08524500
C        2.46000000       0.00000000      10.00000000       0.19055700      -0.11001800       0.03867700
C        1.23000000       2.13042000      10.00000000      -0.00142400       0.22250000       0.03867500
C       -0.00005000       1.42031000      10.00000000      -0.19053800       0.11000700       0.03741700
C       -1.23005000       3.55073000      10.00000000       0.00143000      -0.22248500       0.03742100
C        2.45995000       1.42031000      10.00000000       0.19339200       0.11000400       0.03742100
C        1.22995000       3.55073000      10.00000000       0.00141000      -0.00081400       0.08400200
Li       1.22995000       0.71016000      12.00000000      -0.00001000       0.00000600       0.00000000
17
Lattice="4.920000076 0.0 0.0 -2.460000038 4.260845053 0.0 0.0 0.0 24.0" Properties=species:S:1:pos:R:3:forces:R:3 stress="-0.012916871792615785 6.849432114744288e-05 -0.0 6.849432114744288e-05 -0.012837785630481722 -0.0 -0.0 -0.0 0.007312795510740735" free_energy=-150.59845142 energy=-150.59786061 pbc="T T T"
C        0.00000000       0.00000000      13.99813000      -0.19371700      -0.11020000      -0.04920800
C        3.69000000       2.13042000      13.99589000      -0.00141600       0.00081800      -0.06517700
C        2.46000000       0.00000000      13.99813000       0.19087400      -0.11020100      -0.04919900
C        1.23000000       2.13042000      13.99813000      -0.00142300       0.22286400      -0.04920800
C       -0.00005000       1.42031000      13.99819000      -0.19085000       0.11018700      -0.04967700
C       -1.23005000       3.55073000      13.99819000       0.00142900      -0.22284400      -0.04969000
C        2.45995000       1.42031000      13.99819000       0.19370300       0.11018400      -0.04969000
C        1.22995000       3.55073000      13.99595000       0.00140400      -0.00081000      -0.06578400
C        0.00000000       0.00000000      10.00187000      -0.19371700      -0.11020000       0.04920800
C        3.69000000       2.13042000      10.00411000      -0.00141600       0.00081800       0.06517700
C        2.46000000       0.00000000      10.00187000       0.19087400      -0.11020100       0.04919900
C        1.23000000       2.13042000      10.00187000      -0.00142300       0.22286400       0.04920800
C       -0.00005000       1.42031000      10.00181000      -0.19085000       0.11018700       0.04967700
C       -1.23005000       3.55073000      10.00181000       0.00142900      -0.22284400       0.04969000
C        2.45995000       1.42031000      10.00181000       0.19370300       0.11018400       0.04969000
C        1.22995000       3.55073000      10.00405000       0.00140400      -0.00081000       0.06578400
Li       1.22995000       0.71016000      12.00000000      -0.00000800       0.00000500      -0.00000000
17
Lattice="4.920000076 0.0 0.0 -2.460000038 4.260845053 0.0 0.0 0.0 24.0" Properties=species:S:1:pos:R:3:forces:R:3 stress="-0.012914368947456307 6.848183812919111e-05 -0.0 6.848183812919111e-05 -0.012835295268340492 -0.0 -0.0 -0.0 0.0072904758741065764" free_energy=-150.59941716 energy=-150.59882646 pbc="T T T"
C        0.00000000       0.00000000      13.99713000      -0.19393900      -0.11032900      -0.05218900
C        3.69000000       2.13042000      13.99456000      -0.00141600       0.00081800      -0.06396300
C        2.46000000       0.00000000      13.99713000       0.19109800      -0.11033000      -0.05218100
C        1.23000000       2.13042000      13.99713000      -0.00142200       0.22312100      -0.05218900
C       -0.00005000       1.42031000      13.99718000      -0.19107700       0.11031900      -0.05238200
C       -1.23005000       3.55073000      13.99718000       0.00142900      -0.22310400      -0.05239300
C        2.45995000       1.42031000      13.99718000       0.19392800       0.11031400      -0.05239300
C        1.22995000       3.55073000      13.99461000       0.00140300      -0.00081000      -0.06429200
C        0.00000000       0.00000000      10.00287000      -0.19393900      -0.11032900       0.05218900
C        3.69000000       2.13042000      10.00544000      -0.00141600       0.00081800       0.06396300
C        2.46000000       0.00000000      10.00287000       0.19109800      -0.11033000       0.05218100
C        1.23000000       2.13042000      10.00287000      -0.00142200       0.22312100       0.05218900
C       -0.00005000       1.42031000      10.00282000      -0.19107700       0.11031900       0.05238200
C       -1.23005000       3.55073000      10.00282000       0.00142900      -0.22310400       0.05239300
C        2.45995000       1.42031000      10.00282000       0.19392800       0.11031400       0.05239300
C        1.22995000       3.55073000      10.00539000       0.00140300      -0.00081000       0.06429200
Li       1.22995000       0.71016000      12.00000000      -0.00000700       0.00000400      -0.00000000
17
Lattice="4.920000076 0.0 0.0 -2.460000038 4.260845053 0.0 0.0 0.0 24.0" Properties=species:S:1:pos:R:3:forces:R:3 stress="-0.013440990038443583 6.848807963831699e-05 -0.0 6.848807963831699e-05 -0.013361903876309516 -0.0 -0.0 -0.0 0.007174065487399728" free_energy=-150.58848018 energy=-150.58788753 pbc="T T T"
C        0.00000000       0.00000000      14.01037000      -0.19138700      -0.10885500      -0.04980300
C        3.69000000       2.13042000      14.00893000      -0.00141500       0.00081700      -0.07073600
C        2.46000000       0.00000000      14.01037000       0.18854900      -0.10885900      -0.04977800
C        1.23000000       2.13042000      14.01037000      -0.00142200       0.22017400      -0.04980300
C       -0.00005000       1.42031000      14.01036000      -0.18852400       0.10884500      -0.04846100
C       -1.23005000       3.55073000      14.01037000       0.00142800      -0.22015500      -0.04849500
C        2.45995000       1.42031000      14.01037000       0.19137400       0.10884000      -0.04849500
C        1.22995000       3.55073000      14.00895000       0.00140200      -0.00081000      -0.06959600
C        0.00000000       0.00000000       9.98963000      -0.19138700      -0.10885500       0.04980300
C        3.69000000       2.13042000       9.99107000      -0.00141500       0.00081700       0.07073600
C        2.46000000       0.00000000       9.98963000       0.18854900      -0.10885900       0.04977800
C        1.23000000       2.13042000       9.98963000      -0.00142200       0.22017400       0.04980300
C       -0.00005000       1.42031000       9.98964000      -0.18852400       0.10884500       0.04846100
C       -1.23005000       3.55073000       9.98963000       0.00142800      -0.22015500       0.04849500
C        2.45995000       1.42031000       9.98963000       0.19137400       0.10884000       0.04849500
C        1.22995000       3.55073000       9.99105000       0.00140200      -0.00081000       0.06959600
Li       1.22995000       0.71015000      12.00000000      -0.00000700       0.00000400      -0.00000000
17
Lattice="4.920000076 0.0 0.0 -2.460000038 4.260845053 0.0 0.0 0.0 24.0" Properties=species:S:1:pos:R:3:forces:R:3 stress="-0.013459127863963399 6.848807963831699e-05 -0.0 6.848807963831699e-05 -0.013380041701829335 -0.0 -0.0 -0.0 0.007303015065940476" free_energy=-150.58448652 energy=-150.58389286 pbc="T T T"
C        0.00000000       0.00000000      14.01550000      -0.19042900      -0.10829500      -0.04393200
C        3.69000000       2.13042000      14.01343000      -0.00141900       0.00082000      -0.05317100
C        2.46000000       0.00000000      14.01550000       0.18758000      -0.10829900      -0.04391700
C        1.23000000       2.13042000      14.01550000      -0.00142800       0.21906300      -0.04393200
C       -0.00005000       1.42031000      14.01556000      -0.18755100       0.10828200      -0.04479500
C       -1.23005000       3.55073000      14.01556000       0.00143500      -0.21904000      -0.04481700
C        2.45995000       1.42031000      14.01556000       0.19041100       0.10827700      -0.04481700
C        1.22995000       3.55073000      14.01352000       0.00140700      -0.00081200      -0.05428600
C        0.00000000       0.00000000       9.98450000      -0.19042900      -0.10829500       0.04393200
C        3.69000000       2.13042000       9.98657000      -0.00141900       0.00082000       0.05317100
C        2.46000000       0.00000000       9.98450000       0.18758000      -0.10829900       0.04391700
C        1.23000000       2.13042000       9.98450000      -0.00142800       0.21906300       0.04393200
C       -0.00005000       1.42031000       9.98444000      -0.18755100       0.10828200       0.04479500
C       -1.23005000       3.55073000       9.98444000       0.00143500      -0.21904000       0.04481700
C        2.45995000       1.42031000       9.98444000       0.19041100       0.10827700       0.04481700
C        1.22995000       3.55073000       9.98648000       0.00140700      -0.00081200       0.05428600
Li       1.22995000       0.71015000      12.00000000      -0.00001300       0.00000800       0.00000000
17
Lattice="4.920000076 0.0 0.0 -2.460000038 4.260845053 0.0 0.0 0.0 24.0" Properties=species:S:1:pos:R:3:forces:R:3 stress="-0.01317170012720735 6.846935511093935e-05 -0.0 6.846935511093935e-05 -0.013092638931109787 -0.0 -0.0 -0.0 0.008082885389710463" free_energy=-150.56410971 energy=-150.56351199 pbc="T T T"
C        0.00000000       0.00000000      14.03725000      -0.18645900      -0.10601200      -0.08579600
C        3.69000000       2.13042000      14.03447000      -0.00140800       0.00081300      -0.07427200
C        2.46000000       0.00000000      14.03725000       0.18363200      -0.10602000      -0.08581100
C        1.23000000       2.13042000      14.03725000      -0.00142000       0.21448400      -0.08579600
C       -0.00005000       1.42031000      14.03712000      -0.18360600       0.10600500      -0.08210200
C       -1.23005000       3.55073000      14.03712000       0.00142400      -0.21446200      -0.08209600
C        2.45995000       1.42031000      14.03712000       0.18644200       0.10599800      -0.08209600
C        1.22995000       3.55073000      14.03438000       0.00139900      -0.00080800      -0.07046700
C        0.00000000       0.00000000       9.96275000      -0.18645900      -0.10601200       0.08579600
C        3.69000000       2.13042000       9.96553000      -0.00140800       0.00081300       0.07427200
C        2.46000000       0.00000000       9.96275000       0.18363200      -0.10602000       0.08581100
C        1.23000000       2.13042000       9.96275000      -0.00142000       0.21448400       0.08579600
C       -0.00005000       1.42031000       9.96288000      -0.18360600       0.10600500       0.08210200
C       -1.23005000       3.55073000       9.96288000       0.00142400      -0.21446200       0.08209600
C        2.45995000       1.42031000       9.96288000       0.18644200       0.10599800       0.08209600
C        1.22995000       3.55073000       9.96562000       0.00139900      -0.00080800       0.07046700
Li       1.22995000       0.71015000      12.00000000      -0.00000600       0.00000400       0.00000000
17
Lattice="4.920000076 0.0 0.0 -2.460000038 4.260845053 0.0 0.0 0.0 24.0" Properties=species:S:1:pos:R:3:forces:R:3 stress="-0.013395863927463447 6.849432114744288e-05 -0.0 6.849432114744288e-05 -0.01331677776532938 -0.0 -0.0 -0.0 0.006726730286838549" free_energy=-150.60578029 energy=-150.60519046 pbc="T T T"
C        0.00000000       0.00000000      13.98899000      -0.19569700      -0.11134200      -0.04507200
C        3.69000000       2.13042000      13.98611000      -0.00141900       0.00081900      -0.05727700
C        2.46000000       0.00000000      13.98899000       0.19285100      -0.11134300      -0.04504300
C        1.23000000       2.13042000      13.98899000      -0.00142400       0.22515000      -0.04507200
C       -0.00005000       1.42031000      13.98898000      -0.19283800       0.11133500      -0.04376700
C       -1.23005000       3.55073000      13.98898000       0.00142800      -0.22513800      -0.04380600
C        2.45995000       1.42031000      13.98898000       0.19568900       0.11133200      -0.04380600
C        1.22995000       3.55073000      13.98610000       0.00141500      -0.00081700      -0.05619900
C        0.00000000       0.00000000      10.01101000      -0.19569700      -0.11134200       0.04507200
C        3.69000000       2.13042000      10.01389000      -0.00141900       0.00081900       0.05727700
C        2.46000000       0.00000000      10.01101000       0.19285100      -0.11134300       0.04504300
C        1.23000000       2.13042000      10.01101000      -0.00142400       0.22515000       0.04507200
C       -0.00005000       1.42031000      10.01102000      -0.19283800       0.11133500       0.04376700
C       -1.23005000       3.55073000      10.01102000       0.00142800      -0.22513800       0.04380600
C        2.45995000       1.42031000      10.01102000       0.19568900       0.11133200       0.04380600
C        1.22995000       3.55073000      10.01390000       0.00141500      -0.00081700       0.05619900
Li       1.22995000       0.71015000      12.00000000      -0.00000900       0.00000500      -0.00000000
17
Lattice="4.920000076 0.0 0.0 -2.460000038 4.260845053 0.0 0.0 0.0 24.0" Properties=species:S:1:pos:R:3:forces:R:3 stress="-0.011624660950738547 6.801372494474986e-05 -0.0 6.801372494474986e-05 -0.01154612404140756 -0.0 -0.0 -0.0 0.006263678966298395" free_energy=-150.62597595 energy=-150.62529631 pbc="T T T"
C        0.00000000       0.00000000      13.92907000      -0.20943900      -0.11932900       0.00815700
C        3.69000000       2.13042000      13.92405000      -0.00137700       0.00079500       0.00141100
C        2.46000000       0.00000000      13.92906000       0.20667700      -0.11932500       0.00819500
C        1.23000000       2.13042000      13.92907000      -0.00137800       0.24104400       0.00815700
C       -0.00005000       1.42031000      13.92912000      -0.20666100       0.11931600       0.00654800
C       -1.23005000       3.55073000      13.92912000       0.00138500      -0.24103000       0.00649300
C        2.45995000       1.42031000      13.92912000       0.20943100       0.11931500       0.00649300
C        1.22995000       3.55073000      13.92402000       0.00136600      -0.00078900       0.00060100
C        0.00000000       0.00000000      10.07093000      -0.20943900      -0.11932900      -0.00815700
C        3.69000000       2.13042000      10.07595000      -0.00137700       0.00079500      -0.00141100
C        2.46000000       0.00000000      10.07094000       0.20667700      -0.11932500      -0.00819500
C        1.23000000       2.13042000      10.07093000      -0.00137800       0.24104400      -0.00815700
C       -0.00005000       1.42031000      10.07088000      -0.20666100       0.11931600      -0.00654800
C       -1.23005000       3.55073000      10.07088000       0.00138500      -0.24103000      -0.00649300
C        2.45995000       1.42031000      10.07088000       0.20943100       0.11931500      -0.00649300
C        1.22995000       3.55073000      10.07598000       0.00136600      -0.00078900      -0.00060100
Li       1.22995000       0.71016000      12.00000000      -0.00000900       0.00000500      -0.00000000
