17
Lattice="4.920000076 0.0 0.0 -2.460000038 4.260845053 0.0 0.0 0.0 24.0" Properties=species:S:1:pos:R:3:forces:R:3 stress="-0.011964704609425792 5.435106146819141e-05 -0.0 5.435106146819141e-05 -0.01190193999365591 -0.0 -0.0 -0.0 0.002850728153628542" free_energy=-150.634026 energy=-150.63298447 pbc="T T T"
C        0.00000000       0.00000000      13.85000000      -0.23375300      -0.13181600       0.04169500
C        3.69000000       2.13042000      13.85000000      -0.00271900       0.00157000      -0.10554600
C        2.46000000       0.00000000      13.85000000       0.22830400      -0.13181200       0.04166900
C        1.23000000       2.13042000      13.85000000      -0.00272100       0.26834400       0.04169500
C       -0.00005000       1.42031000      13.85000000      -0.22810700       0.13169800       0.04463300
C       -1.23005000       3.55073000      13.85000000       0.00291800      -0.26844800       0.04464300
C        2.45995000       1.42031000      13.85000000       0.23394200       0.13169700       0.04464300
C        1.22995000       3.55073000      13.85000000       0.00288600      -0.00166600      -0.10272700
C        0.00000000       0.00000000      10.15000000      -0.23375300      -0.13181600      -0.04169500
C        3.69000000       2.13042000      10.15000000      -0.00271900       0.00157000       0.10554600
C        2.46000000       0.00000000      10.15000000       0.22830400      -0.13181200      -0.04166900
C        1.23000000       2.13042000      10.15000000      -0.00272100       0.26834400      -0.04169500
C       -0.00005000       1.42031000      10.15000000      -0.22810700       0.13169800      -0.04463300
C       -1.23005000       3.55073000      10.15000000       0.00291800      -0.26844800      -0.04464300
C        2.45995000       1.42031000      10.15000000       0.23394200       0.13169700      -0.04464300
C        1.22995000       3.55073000      10.15000000       0.00288600      -0.00166600       0.10272700
Li       1.22995000       0.71016000      12.00000000      -0.00150000       0.00086600       0.00000000
17
Lattice="4.920000076 0.0 0.0 -2.460000038 4.260845053 0.0 0.0 0.0 24.0" Properties=species:S:1:pos:R:3:forces:R:3 stress="-0.011974241635370144 6.629730993513197e-05 -0.0 6.629730993513197e-05 -0.011897683284432059 -0.0 -0.0 -0.0 0.0029473591979154667" free_energy=-150.635861 energy=-150.63481618 pbc="T T T"
C        0.00000000       0.00000000      13.85201000      -0.23164200      -0.13234600       0.01724500
C        3.69000000       2.13042000      13.84491000      -0.00124800       0.00072100      -0.01514400
C        2.46000000       0.00000000      13.85201000       0.22917700      -0.13231600       0.01723400
C        1.23000000       2.13042000      13.85201000      -0.00120600       0.26678100       0.01724500
C       -0.00005000       1.42031000      13.85215000      -0.22917800       0.13231600       0.01237200
C       -1.23005000       3.55073000      13.85215000       0.00124900      -0.26674000       0.01229100
C        2.45995000       1.42031000      13.85215000       0.23162900       0.13228800       0.01229100
C        1.22995000       3.55073000      13.84504000       0.00119000      -0.00068700      -0.02033700
C        0.00000000       0.00000000      10.14799000      -0.23164200      -0.13234600      -0.01724500
C        3.69000000       2.13042000      10.15509000      -0.00124800       0.00072100       0.01514400
C        2.46000000       0.00000000      10.14799000       0.22917700      -0.13231600      -0.01723400
C        1.23000000       2.13042000      10.14799000      -0.00120600       0.26678100      -0.01724500
C       -0.00005000       1.42031000      10.14785000      -0.22917800       0.13231600      -0.01237200
C       -1.23005000       3.55073000      10.14785000       0.00124900      -0.26674000      -0.01229100
C        2.45995000       1.42031000      10.14785000       0.23162900       0.13228800      -0.01229100
C        1.22995000       3.55073000      10.15496000       0.00119000      -0.00068700       0.02033700
Li       1.22988000       0.71020000      12.00000000       0.00006000      -0.00003400      -0.00000000
17
Lattice="4.920000076 0.0 0.0 -2.460000038 4.260845053 0.0 0.0 0.0 24.0" Properties=species:S:1:pos:R:3:forces:R:3 stress="-0.011968986284686149 6.62848269168802e-05 -0.0 6.62848269168802e-05 -0.011892446658275442 -0.0 -0.0 -0.0 0.0031402655204691397" free_energy=-150.63601369 energy=-150.6349666 pbc="T T T"
C        0.00000000       0.00000000      13.85307000      -0.23144800      -0.13223200      -0.00734200
C        3.69000000       2.13042000      13.84398000      -0.00124300       0.00071800       0.00226600
C        2.46000000       0.00000000      13.85307000       0.22898900      -0.13220700      -0.00734600
C        1.23000000       2.13042000      13.85307000      -0.00120800       0.26655600      -0.00734200
C       -0.00005000       1.42031000      13.85292000      -0.22906500       0.13225100       0.00999000
C       -1.23005000       3.55073000      13.85291000       0.00124500      -0.26661100       0.00995100
C        2.45995000       1.42031000      13.85291000       0.23151500       0.13222700       0.00995100
C        1.22995000       3.55073000      13.84379000       0.00119000      -0.00068700       0.00623500
C        0.00000000       0.00000000      10.14693000      -0.23144800      -0.13223200       0.00734200
C        3.69000000       2.13042000      10.15602000      -0.00124300       0.00071800      -0.00226600
C        2.46000000       0.00000000      10.14693000       0.22898900      -0.13220700       0.00734600
C        1.23000000       2.13042000      10.14693000      -0.00120800       0.26655600       0.00734200
C       -0.00005000       1.42031000      10.14708000      -0.22906500       0.13225100      -0.00999000
C       -1.23005000       3.55073000      10.14709000       0.00124500      -0.26661100      -0.00995100
C        2.45995000       1.42031000      10.14709000       0.23151500       0.13222700      -0.00995100
C        1.22995000       3.55073000      10.15621000       0.00119000      -0.00068700      -0.00623500
Li       1.22988000       0.71019000      12.00000000       0.00005300      -0.00003000       0.00000000
