17
Lattice="4.920000076 0.0 0.0 -2.460000038 4.260845053 0.0 0.0 0.0 24.0" Properties=species:S:1:pos:R:3:forces:R:3 stress="-0.012261507092888918 6.559826091303305e-05 -0.0 6.559826091303305e-05 -0.0121857601381372 -0.0 -0.0 -0.0 -0.01889485816169513" free_energy=-149.49337698 energy=-149.49104562 pbc="T T T"
C        0.00000000       0.00000000      13.50000000      -0.47392100      -0.27322300       0.63640800
C        3.69000000       2.13042000      13.50000000      -0.00069700       0.00040300       0.11314800
C        2.46000000       0.00000000      13.50000000       0.47274800      -0.27294100       0.63602200
C        1.23000000       2.13042000      13.50000000      -0.00034200       0.54703900       0.63640800
C       -0.00005000       1.42031000      13.50000000      -0.47275800       0.27294700       0.63613400
C       -1.23005000       3.55073000      13.50000000       0.00035500      -0.54701000       0.63643600
C        2.45995000       1.42031000      13.50000000       0.47390200       0.27319800       0.63643600
C        1.22995000       3.55073000      13.50000000       0.00069200      -0.00040000       0.11315800
C        0.00000000       0.00000000      10.50000000      -0.47392100      -0.27322300      -0.63640800
C        3.69000000       2.13042000      10.50000000      -0.00069700       0.00040300      -0.11314800
C        2.46000000       0.00000000      10.50000000       0.47274800      -0.27294100      -0.63602200
C        1.23000000       2.13042000      10.50000000      -0.00034200       0.54703900      -0.63640800
C       -0.00005000       1.42031000      10.50000000      -0.47275800       0.27294700      -0.63613400
C       -1.23005000       3.55073000      10.50000000       0.00035500      -0.54701000      -0.63643600
C        2.45995000       1.42031000      10.50000000       0.47390200       0.27319800      -0.63643600
C        1.22995000       3.55073000      10.50000000       0.00069200      -0.00040000      -0.11315800
Li       1.22995000       0.71016000      12.00000000       0.00004000      -0.00002300      -0.00000000
17
Lattice="4.920000076 0.0 0.0 -2.460000038 4.260845053 0.0 0.0 0.0 24.0" Properties=species:S:1:pos:R:3:forces:R:3 stress="-0.011784356203233396 6.575429864118013e-05 -0.0 6.575429864118013e-05 -0.011708434486226153 -0.0 -0.0 -0.0 -0.0157643855690445" free_energy=-149.70336413 energy=-149.70108387 pbc="T T T"
C        0.00000000       0.00000000      13.53070000      -0.43854800      -0.25276800       0.47162900
C        3.69000000       2.13042000      13.50546000      -0.00067200       0.00038800       0.40011400
C        2.46000000       0.00000000      13.53068000       0.43740900      -0.25253800       0.47173100
C        1.23000000       2.13042000      13.53070000      -0.00037100       0.50617800       0.47162900
C       -0.00005000       1.42031000      13.53069000      -0.43742000       0.25254400       0.47292800
C       -1.23005000       3.55073000      13.53070000       0.00038000      -0.50616300       0.47279300
C        2.45995000       1.42031000      13.53070000       0.43854000       0.25275300       0.47279300
C        1.22995000       3.55073000      13.50546000       0.00067100      -0.00038700       0.40069500
C        0.00000000       0.00000000      10.46930000      -0.43854800      -0.25276800      -0.47162900
C        3.69000000       2.13042000      10.49454000      -0.00067200       0.00038800      -0.40011400
C        2.46000000       0.00000000      10.46932000       0.43740900      -0.25253800      -0.47173100
C        1.23000000       2.13042000      10.46930000      -0.00037100       0.50617800      -0.47162900
C       -0.00005000       1.42031000      10.46931000      -0.43742000       0.25254400      -0.47292800
C       -1.23005000       3.55073000      10.46930000       0.00038000      -0.50616300      -0.47279300
C        2.45995000       1.42031000      10.46930000       0.43854000       0.25275300      -0.47279300
C        1.22995000       3.55073000      10.49454000       0.00067100      -0.00038700      -0.40069500
Li       1.22995000       0.71015000      12.00000000       0.00002200      -0.00001300       0.00000000
17
Lattice="4.920000076 0.0 0.0 -2.460000038 4.260845053 0.0 0.0 0.0 24.0" Properties=species:S:1:pos:R:3:forces:R:3 stress="-0.012506498809098088 6.073612530396998e-05 -0.0 6.073612530396998e-05 -0.012436369212559665 -0.0 -0.0 -0.0 -0.012571048496477975" free_energy=-149.94804805 energy=-149.94584262 pbc="T T T"
C        0.00000000       0.00000000      13.56982000      -0.40470900      -0.23174800       0.34098300
C        3.69000000       2.13042000      13.53864000      -0.00189100       0.00109200       0.44605900
C        2.46000000       0.00000000      13.56981000       0.40107700      -0.23156200       0.34103200
C        1.23000000       2.13042000      13.56982000      -0.00165500       0.46636200       0.34098300
C       -0.00005000       1.42031000      13.56991000      -0.39987900       0.23087000       0.32871500
C       -1.23005000       3.55073000      13.56992000       0.00262000      -0.46682400       0.32912200
C        2.45995000       1.42031000      13.56992000       0.40559200       0.23114300       0.32912200
C        1.22995000       3.55073000      13.53869000      -0.00055200       0.00031900       0.44484100
C        0.00000000       0.00000000      10.43018000      -0.40470900      -0.23174800      -0.34098300
C        3.69000000       2.13042000      10.46136000      -0.00189100       0.00109200      -0.44605900
C        2.46000000       0.00000000      10.43019000       0.40107700      -0.23156200      -0.34103200
C        1.23000000       2.13042000      10.43018000      -0.00165500       0.46636200      -0.34098300
C       -0.00005000       1.42031000      10.43009000      -0.39987900       0.23087000      -0.32871500
C       -1.23005000       3.55073000      10.43008000       0.00262000      -0.46682400      -0.32912200
C        2.45995000       1.42031000      10.43008000       0.40559200       0.23114300      -0.32912200
C        1.22995000       3.55073000      10.46131000      -0.00055200       0.00031900      -0.44484100
Li       1.22995000       0.71015000      12.00000000      -0.00120800       0.00069700      -0.00000000
17
Lattice="4.920000076 0.0 0.0 -2.460000038 4.260845053 0.0 0.0 0.0 24.0" Properties=species:S:1:pos:R:3:forces:R:3 stress="-0.012160806584651919 6.622865333474725e-05 -0.0 6.622865333474725e-05 -0.012084335614841596 -0.0 -0.0 -0.0 -0.00720426190855075" free_energy=-150.3065954 energy=-150.30496156 pbc="T T T"
C        0.00000000       0.00000000      13.65211000      -0.33076800      -0.19000100       0.17847500
C        3.69000000       2.13042000      13.63120000      -0.00113200       0.00065400       0.17241100
C        2.46000000       0.00000000      13.65212000       0.32868600      -0.18976700       0.17831800
C        1.23000000       2.13042000      13.65211000      -0.00083900       0.38145400       0.17847500
C       -0.00005000       1.42031000      13.65052000      -0.32956900       0.19027700       0.21718400
C       -1.23005000       3.55073000      13.65057000       0.00093900      -0.38218100       0.21635800
C        2.45995000       1.42031000      13.65057000       0.33144800       0.19027700       0.21635800
C        1.22995000       3.55073000      13.63111000       0.00098700      -0.00057000       0.20035900
C        0.00000000       0.00000000      10.34789000      -0.33076800      -0.19000100      -0.17847500
C        3.69000000       2.13042000      10.36880000      -0.00113200       0.00065400      -0.17241100
C        2.46000000       0.00000000      10.34788000       0.32868600      -0.18976700      -0.17831800
C        1.23000000       2.13042000      10.34789000      -0.00083900       0.38145400      -0.17847500
C       -0.00005000       1.42031000      10.34948000      -0.32956900       0.19027700      -0.21718400
C       -1.23005000       3.55073000      10.34943000       0.00093900      -0.38218100      -0.21635800
C        2.45995000       1.42031000      10.34943000       0.33144800       0.19027700      -0.21635800
C        1.22995000       3.55073000      10.36889000       0.00098700      -0.00057000      -0.20035900
Li       1.22978000       0.71025000      12.00000000       0.00049800      -0.00028700      -0.00000000
17
Lattice="4.920000076 0.0 0.0 -2.460000038 4.260845053 0.0 0.0 0.0 24.0" Properties=species:S:1:pos:R:3:forces:R:3 stress="-0.011452932068648995 6.808238154513459e-05 -0.0 6.808238154513459e-05 -0.011374320261208494 -0.0 -0.0 -0.0 -0.0008695358438724262" free_energy=-150.51667888 energy=-150.51581473 pbc="T T T"
C        0.00000000       0.00000000      13.73648000      -0.28080900      -0.16079700       0.16643300
C        3.69000000       2.13042000      13.72026000      -0.00140300       0.00081000       0.15860300
C        2.46000000       0.00000000      13.73648000       0.27817300      -0.16060300       0.16619300
C        1.23000000       2.13042000      13.73648000      -0.00115000       0.32358600       0.16643300
C       -0.00005000       1.42031000      13.73753000      -0.27824600       0.16064500       0.12715000
C       -1.23005000       3.55073000      13.73754000       0.00127900      -0.32342700       0.12686800
C        2.45995000       1.42031000      13.73754000       0.28073600       0.16060600       0.12686800
C        1.22995000       3.55073000      13.72281000       0.00122700      -0.00070800       0.10726600
C        0.00000000       0.00000000      10.26352000      -0.28080900      -0.16079700      -0.16643300
C        3.69000000       2.13042000      10.27974000      -0.00140300       0.00081000      -0.15860300
C        2.46000000       0.00000000      10.26352000       0.27817300      -0.16060300      -0.16619300
C        1.23000000       2.13042000      10.26352000      -0.00115000       0.32358600      -0.16643300
C       -0.00005000       1.42031000      10.26247000      -0.27824600       0.16064500      -0.12715000
C       -1.23005000       3.55073000      10.26246000       0.00127900      -0.32342700      -0.12686800
C        2.45995000       1.42031000      10.26246000       0.28073600       0.16060600      -0.12686800
C        1.22995000       3.55073000      10.27719000       0.00122700      -0.00070800      -0.10726600
Li       1.22971000       0.71029000      12.00000000       0.00038800      -0.00022400       0.00000000
17
Lattice="4.920000076 0.0 0.0 -2.460000038 4.260845053 0.0 0.0 0.0 24.0" Properties=species:S:1:pos:R:3:forces:R:3 stress="-0.011550642894014699 6.642838162677552e-05 -0.0 6.642838162677552e-05 -0.011473934746857593 -0.0 -0.0 -0.0 0.0045916098790199" free_energy=-150.6307958 energy=-150.62973961 pbc="T T T"
C        0.00000000       0.00000000      13.87577000      -0.22447500      -0.12828400      -0.06085300
C        3.69000000       2.13042000      13.86639000      -0.00131700       0.00076000      -0.04790800
C        2.46000000       0.00000000      13.87574000       0.22201900      -0.12818300      -0.06088800
C        1.23000000       2.13042000      13.87577000      -0.00114000       0.25854300      -0.06085300
C       -0.00005000       1.42031000      13.87319000      -0.22223400       0.12830700       0.02275700
C       -1.23005000       3.55073000      13.87314000       0.00130400      -0.25865300       0.02299000
C        2.45995000       1.42031000      13.87314000       0.22465200       0.12819700       0.02299000
C        1.22995000       3.55073000      13.86461000       0.00107900      -0.00062300       0.01914300
C        0.00000000       0.00000000      10.12423000      -0.22447500      -0.12828400       0.06085300
C        3.69000000       2.13042000      10.13361000      -0.00131700       0.00076000       0.04790800
C        2.46000000       0.00000000      10.12426000       0.22201900      -0.12818300       0.06088800
C        1.23000000       2.13042000      10.12423000      -0.00114000       0.25854300       0.06085300
C       -0.00005000       1.42031000      10.12681000      -0.22223400       0.12830700      -0.02275700
C       -1.23005000       3.55073000      10.12686000       0.00130400      -0.25865300      -0.02299000
C        2.45995000       1.42031000      10.12686000       0.22465200       0.12819700      -0.02299000
C        1.22995000       3.55073000      10.13539000       0.00107900      -0.00062300      -0.01914300
Li       1.22961000       0.71035000      12.00000000       0.00022400      -0.00012900      -0.00000000
17
Lattice="4.920000076 0.0 0.0 -2.460000038 4.260845053 0.0 0.0 0.0 24.0" Properties=species:S:1:pos:R:3:forces:R:3 stress="-0.012133144216206005 6.629106842600608e-05 -0.0 6.629106842600608e-05 -0.012056598348286172 -0.0 -0.0 -0.0 0.003009580802391397" free_energy=-150.6356494 energy=-150.63461618 pbc="T T T"
C        0.00000000       0.00000000      13.84987000      -0.23246800      -0.13287300       0.02856700
C        3.69000000       2.13042000      13.83971000      -0.00132900       0.00076800       0.03741900
C        2.46000000       0.00000000      13.84985000       0.22996500      -0.13277100       0.02856300
C        1.23000000       2.13042000      13.84987000      -0.00116200       0.26776000       0.02856700
C       -0.00005000       1.42031000      13.85091000      -0.22999100       0.13278500      -0.01459000
C       -1.23005000       3.55073000      13.85088000       0.00131100      -0.26763500      -0.01453600
C        2.45995000       1.42031000      13.85088000       0.23243400       0.13268200      -0.01453600
C        1.22995000       3.55073000      13.84092000       0.00111900      -0.00064600       0.00379100
C        0.00000000       0.00000000      10.15013000      -0.23246800      -0.13287300      -0.02856700
C        3.69000000       2.13042000      10.16029000      -0.00132900       0.00076800      -0.03741900
C        2.46000000       0.00000000      10.15015000       0.22996500      -0.13277100      -0.02856300
C        1.23000000       2.13042000      10.15013000      -0.00116200       0.26776000      -0.02856700
C       -0.00005000       1.42031000      10.14909000      -0.22999100       0.13278500       0.01459000
C       -1.23005000       3.55073000      10.14912000       0.00131100      -0.26763500       0.01453600
C        2.45995000       1.42031000      10.14912000       0.23243400       0.13268200       0.01453600
C        1.22995000       3.55073000      10.15908000       0.00111900      -0.00064600      -0.00379100
Li       1.22964000       0.71033000      12.00000000       0.00024100      -0.00013900      -0.00000000
17
Lattice="4.920000076 0.0 0.0 -2.460000038 4.260845053 0.0 0.0 0.0 24.0" Properties=species:S:1:pos:R:3:forces:R:3 stress="-0.011890193473481 6.627234389862844e-05 -0.0 6.627234389862844e-05 -0.01181367257159767 -0.0 -0.0 -0.0 0.003690654278207778" free_energy=-150.63551815 energy=-150.63445206 pbc="T T T"
C        0.00000000       0.00000000      13.85876000      -0.22951800      -0.13119200      -0.01360800
C        3.69000000       2.13042000      13.84937000      -0.00131000       0.00075600       0.01483100
C        2.46000000       0.00000000      13.85874000       0.22706000      -0.13109300      -0.01359300
C        1.23000000       2.13042000      13.85876000      -0.00114400       0.26436400      -0.01360800
C       -0.00005000       1.42031000      13.85859000      -0.22715000       0.13114500      -0.01084600
C       -1.23005000       3.55073000      13.85856000       0.00129100      -0.26432500      -0.01078700
C        2.45995000       1.42031000      13.85856000       0.22955700       0.13104400      -0.01078700
C        1.22995000       3.55073000      13.84961000       0.00109800      -0.00063400       0.01398400
C        0.00000000       0.00000000      10.14124000      -0.22951800      -0.13119200       0.01360800
C        3.69000000       2.13042000      10.15063000      -0.00131000       0.00075600      -0.01483100
C        2.46000000       0.00000000      10.14126000       0.22706000      -0.13109300       0.01359300
C        1.23000000       2.13042000      10.14124000      -0.00114400       0.26436400       0.01360800
C       -0.00005000       1.42031000      10.14141000      -0.22715000       0.13114500       0.01084600
C       -1.23005000       3.55073000      10.14144000       0.00129100      -0.26432500       0.01078700
C        2.45995000       1.42031000      10.14144000       0.22955700       0.13104400       0.01078700
C        1.22995000       3.55073000      10.15039000       0.00109800      -0.00063400      -0.01398400
Li       1.22965000       0.71033000      12.00000000       0.00023000      -0.00013300       0.00000000
17
Lattice="4.920000076 0.0 0.0 -2.460000038 4.260845053 0.0 0.0 0.0 24.0" Properties=species:S:1:pos:R:3:forces:R:3 stress="-0.01188377720209959 6.627234389862844e-05 -0.0 6.627234389862844e-05 -0.011807250058707136 -0.0 -0.0 -0.0 0.0036451037446070815" free_energy=-150.63577005 energy=-150.63470951 pbc="T T T"
C        0.00000000       0.00000000      13.85649000      -0.23022800      -0.13159600      -0.01300400
C        3.69000000       2.13042000      13.84808000      -0.00131000       0.00075600       0.00010500
C        2.46000000       0.00000000      13.85647000       0.22776400      -0.13150000      -0.01299100
C        1.23000000       2.13042000      13.85649000      -0.00114900       0.26518100      -0.01300400
C       -0.00005000       1.42031000      13.85622000      -0.22786600       0.13155800      -0.00733200
C       -1.23005000       3.55073000      13.85619000       0.00129100      -0.26515900      -0.00728900
C        2.45995000       1.42031000      13.85619000       0.23028000       0.13146100      -0.00728900
C        1.22995000       3.55073000      13.84813000       0.00110500      -0.00063800       0.00324700
C        0.00000000       0.00000000      10.14351000      -0.23022800      -0.13159600       0.01300400
C        3.69000000       2.13042000      10.15192000      -0.00131000       0.00075600      -0.00010500
C        2.46000000       0.00000000      10.14353000       0.22776400      -0.13150000       0.01299100
C        1.23000000       2.13042000      10.14351000      -0.00114900       0.26518100       0.01300400
C       -0.00005000       1.42031000      10.14378000      -0.22786600       0.13155800       0.00733200
C       -1.23005000       3.55073000      10.14381000       0.00129100      -0.26515900       0.00728900
C        2.45995000       1.42031000      10.14381000       0.23028000       0.13146100       0.00728900
C        1.22995000       3.55073000      10.15187000       0.00110500      -0.00063800      -0.00324700
Li       1.22966000       0.71033000      12.00000000       0.00022500      -0.00013000      -0.00000000
17
Lattice="4.920000076 0.0 0.0 -2.460000038 4.260845053 0.0 0.0 0.0 24.0" Properties=species:S:1:pos:R:3:forces:R:3 stress="-0.011977880435190533 6.62848269168802e-05 -0.0 6.62848269168802e-05 -0.011901340808779826 -0.0 -0.0 -0.0 0.0029732926683335116" free_energy=-150.63596968 energy=-150.63492298 pbc="T T T"
C        0.00000000       0.00000000      13.85279000      -0.23154500      -0.13234300       0.01006700
C        3.69000000       2.13042000      13.84464000      -0.00131400       0.00075900      -0.00892600
C        2.46000000       0.00000000      13.85277000       0.22906500      -0.13225100       0.01007900
C        1.23000000       2.13042000      13.85279000      -0.00116000       0.26669500       0.01006700
C       -0.00005000       1.42031000      13.85253000      -0.22917400       0.13231400       0.01520900
C       -1.23005000       3.55073000      13.85250000       0.00129500      -0.26668700       0.01522900
C        2.45995000       1.42031000      13.85250000       0.23160500       0.13222200       0.01522900
C        1.22995000       3.55073000      13.84468000       0.00112000      -0.00064700      -0.00583400
C        0.00000000       0.00000000      10.14721000      -0.23154500      -0.13234300      -0.01006700
C        3.69000000       2.13042000      10.15536000      -0.00131400       0.00075900       0.00892600
C        2.46000000       0.00000000      10.14723000       0.22906500      -0.13225100      -0.01007900
C        1.23000000       2.13042000      10.14721000      -0.00116000       0.26669500      -0.01006700
C       -0.00005000       1.42031000      10.14747000      -0.22917400       0.13231400      -0.01520900
C       -1.23005000       3.55073000      10.14750000       0.00129500      -0.26668700      -0.01522900
C        2.45995000       1.42031000      10.14750000       0.23160500       0.13222200      -0.01522900
C        1.22995000       3.55073000      10.15532000       0.00112000      -0.00064700       0.00583400
Li       1.22967000       0.71032000      12.00000000       0.00021700      -0.00012500      -0.00000000
17
Lattice="4.920000076 0.0 0.0 -2.460000038 4.260845053 0.0 0.0 0.0 24.0" Properties=species:S:1:pos:R:3:forces:R:3 stress="-0.011878403262742206 6.627234389862844e-05 -0.0 6.627234389862844e-05 -0.011801876119349752 -0.0 -0.0 -0.0 0.003619401210026694" free_energy=-150.6359139 energy=-150.63485731 pbc="T T T"
C        0.00000000       0.00000000      13.85527000      -0.23056200      -0.13178200      -0.01168400
C        3.69000000       2.13042000      13.84681000      -0.00130800       0.00075500       0.00202000
C        2.46000000       0.00000000      13.85525000       0.22809400      -0.13169000      -0.01166600
C        1.23000000       2.13042000      13.85527000      -0.00115400       0.26556300      -0.01168400
C       -0.00005000       1.42031000      13.85526000      -0.22816600       0.13173200      -0.01280600
C       -1.23005000       3.55073000      13.85523000       0.00129000      -0.26551300      -0.01277900
C        2.45995000       1.42031000      13.85523000       0.23058600       0.13163900      -0.01277900
C        1.22995000       3.55073000      13.84700000       0.00111300      -0.00064200      -0.00100900
C        0.00000000       0.00000000      10.14473000      -0.23056200      -0.13178200       0.01168400
C        3.69000000       2.13042000      10.15319000      -0.00130800       0.00075500      -0.00202000
C        2.46000000       0.00000000      10.14475000       0.22809400      -0.13169000       0.01166600
C        1.23000000       2.13042000      10.14473000      -0.00115400       0.26556300       0.01168400
C       -0.00005000       1.42031000      10.14474000      -0.22816600       0.13173200       0.01280600
C       -1.23005000       3.55073000      10.14477000       0.00129000      -0.26551300       0.01277900
C        2.45995000       1.42031000      10.14477000       0.23058600       0.13163900       0.01277900
C        1.22995000       3.55073000      10.15300000       0.00111300      -0.00064200       0.00100900
Li       1.22967000       0.71032000      12.00000000       0.00021400      -0.00012400       0.00000000
17
Lattice="4.920000076 0.0 0.0 -2.460000038 4.260845053 0.0 0.0 0.0 24.0" Properties=species:S:1:pos:R:3:forces:R:3 stress="-0.011963125507616945 6.627858540775433e-05 -0.0 6.627858540775433e-05 -0.011886592122715364 -0.0 -0.0 -0.0 0.0033326413147471137" free_energy=-150.63599433 energy=-150.63494217 pbc="T T T"
C        0.00000000       0.00000000      13.85403000      -0.23109400      -0.13208300      -0.00072000
C        3.69000000       2.13042000      13.84563000      -0.00130700       0.00075500      -0.00119800
C        2.46000000       0.00000000      13.85401000       0.22862100      -0.13199500      -0.00070100
C        1.23000000       2.13042000      13.85403000      -0.00116000       0.26617500      -0.00072000
C       -0.00005000       1.42031000      13.85399000      -0.22869900       0.13203900      -0.00091800
C       -1.23005000       3.55073000      13.85396000       0.00129000      -0.26613500      -0.00089800
C        2.45995000       1.42031000      13.85396000       0.23112500       0.13195100      -0.00089800
C        1.22995000       3.55073000      13.84574000       0.00112000      -0.00064700      -0.00277200
C        0.00000000       0.00000000      10.14597000      -0.23109400      -0.13208300       0.00072000
C        3.69000000       2.13042000      10.15437000      -0.00130700       0.00075500       0.00119800
C        2.46000000       0.00000000      10.14599000       0.22862100      -0.13199500       0.00070100
C        1.23000000       2.13042000      10.14597000      -0.00116000       0.26617500       0.00072000
C       -0.00005000       1.42031000      10.14601000      -0.22869900       0.13203900       0.00091800
C       -1.23005000       3.55073000      10.14604000       0.00129000      -0.26613500       0.00089800
C        2.45995000       1.42031000      10.14604000       0.23112500       0.13195100       0.00089800
C        1.22995000       3.55073000      10.15426000       0.00112000      -0.00064700       0.00277200
Li       1.22968000       0.71031000      12.00000000       0.00020800      -0.00012000      -0.00000000
