17
Lattice="4.920000076 0.0 0.0 -2.460000038 4.260845053 0.0 0.0 0.0 24.0" Properties=species:S:1:pos:R:3:forces:R:3 stress="-0.012180873036491634 5.373939357385485e-05 -0.0 5.373939357385485e-05 -0.012118819952762101 -0.0 -0.0 -0.0 -0.014315225738687798" free_energy=-149.85890827 energy=-149.85659761 pbc="T T T"
C        0.00000000       0.00000000      13.55000000      -0.42737900      -0.24456800       0.50579100
C        3.69000000       2.13042000      13.55000000      -0.00220200       0.00127100       0.04704300
C        2.46000000       0.00000000      13.55000000       0.42318200      -0.24432400       0.50545800
C        1.23000000       2.13042000      13.55000000      -0.00188700       0.49240500       0.50579100
C       -0.00005000       1.42031000      13.55000000      -0.42283600       0.24412400       0.50208200
C       -1.23005000       3.55073000      13.55000000       0.00203800      -0.49244200       0.50257900
C        2.45995000       1.42031000      13.55000000       0.42748600       0.24445600       0.50257900
C        1.22995000       3.55073000      13.55000000       0.00233900      -0.00135000       0.04385000
C        0.00000000       0.00000000      10.45000000      -0.42737900      -0.24456800      -0.50579100
C        3.69000000       2.13042000      10.45000000      -0.00220200       0.00127100      -0.04704300
C        2.46000000       0.00000000      10.45000000       0.42318200      -0.24432400      -0.50545800
C        1.23000000       2.13042000      10.45000000      -0.00188700       0.49240500      -0.50579100
C       -0.00005000       1.42031000      10.45000000      -0.42283600       0.24412400      -0.50208200
C       -1.23005000       3.55073000      10.45000000       0.00203800      -0.49244200      -0.50257900
C        2.45995000       1.42031000      10.45000000       0.42748600       0.24445600      -0.50257900
C        1.22995000       3.55073000      10.45000000       0.00233900      -0.00135000      -0.04385000
Li       1.22995000       0.71016000      12.00000000      -0.00148200       0.00085500      -0.00000000
17
Lattice="4.920000076 0.0 0.0 -2.460000038 4.260845053 0.0 0.0 0.0 24.0" Properties=species:S:1:pos:R:3:forces:R:3 stress="-0.012997062701865134 6.605389107922252e-05 -0.0 6.605389107922252e-05 -0.012920785218837716 -0.0 -0.0 -0.0 -0.012335656221304413" free_energy=-149.98376118 energy=-149.9815216 pbc="T T T"
C        0.00000000       0.00000000      13.57440000      -0.40043600      -0.23075700       0.31141000
C        3.69000000       2.13042000      13.55227000      -0.00070900       0.00040900       0.28943400
C        2.46000000       0.00000000      13.57438000       0.39922400      -0.23049200       0.31138300
C        1.23000000       2.13042000      13.57440000      -0.00037700       0.46216700       0.31141000
C       -0.00005000       1.42031000      13.57422000      -0.39937600       0.23058000       0.31524300
C       -1.23005000       3.55073000      13.57425000       0.00043400      -0.46216500       0.31487700
C        2.45995000       1.42031000      13.57425000       0.40046400       0.23070700       0.31487700
C        1.22995000       3.55073000      13.55212000       0.00063900      -0.00036900       0.29446700
C        0.00000000       0.00000000      10.42560000      -0.40043600      -0.23075700      -0.31141000
C        3.69000000       2.13042000      10.44773000      -0.00070900       0.00040900      -0.28943400
C        2.46000000       0.00000000      10.42562000       0.39922400      -0.23049200      -0.31138300
C        1.23000000       2.13042000      10.42560000      -0.00037700       0.46216700      -0.31141000
C       -0.00005000       1.42031000      10.42578000      -0.39937600       0.23058000      -0.31524300
C       -1.23005000       3.55073000      10.42575000       0.00043400      -0.46216500      -0.31487700
C        2.45995000       1.42031000      10.42575000       0.40046400       0.23070700      -0.31487700
C        1.22995000       3.55073000      10.44788000       0.00063900      -0.00036900      -0.29446700
Li       1.22988000       0.71020000      12.00000000       0.00027500      -0.00015900       0.00000000
17
Lattice="4.920000076 0.0 0.0 -2.460000038 4.260845053 0.0 0.0 0.0 24.0" Properties=species:S:1:pos:R:3:forces:R:3 stress="-0.012917015347325684 6.503652509170355e-05 -0.0 6.503652509170355e-05 -0.012841917509523055 -0.0 -0.0 -0.0 -0.010023620237312602" free_energy=-150.09869471 energy=-150.09616714 pbc="T T T"
C        0.00000000       0.00000000      13.59890000      -0.37952800      -0.21871900       0.28086500
C        3.69000000       2.13042000      13.57504000      -0.00060800       0.00035100       0.25163800
C        2.46000000       0.00000000      13.59889000       0.37846400      -0.21850700       0.28086500
C        1.23000000       2.13042000      13.59890000      -0.00034700       0.43804000       0.28086500
C       -0.00005000       1.42031000      13.59903000      -0.37847400       0.21851200       0.27536400
C       -1.23005000       3.55073000      13.59902000       0.00039100      -0.43794900       0.27533800
C        2.45995000       1.42031000      13.59902000       0.37947000       0.21863600       0.27533800
C        1.22995000       3.55073000      13.57529000       0.00056700      -0.00032700       0.24568700
C        0.00000000       0.00000000      10.40110000      -0.37952800      -0.21871900      -0.28086500
C        3.69000000       2.13042000      10.42496000      -0.00060800       0.00035100      -0.25163800
C        2.46000000       0.00000000      10.40111000       0.37846400      -0.21850700      -0.28086500
C        1.23000000       2.13042000      10.40110000      -0.00034700       0.43804000      -0.28086500
C       -0.00005000       1.42031000      10.40097000      -0.37847400       0.21851200      -0.27536400
C       -1.23005000       3.55073000      10.40098000       0.00039100      -0.43794900      -0.27533800
C        2.45995000       1.42031000      10.40098000       0.37947000       0.21863600      -0.27533800
C        1.22995000       3.55073000      10.42471000       0.00056700      -0.00032700      -0.24568700
Li       1.22990000       0.71018000      12.00000000       0.00013000      -0.00007500       0.00000000
17
Lattice="4.920000076 0.0 0.0 -2.460000038 4.260845053 0.0 0.0 0.0 24.0" Properties=species:S:1:pos:R:3:forces:R:3 stress="-0.012610101619078627 6.693394386597207e-05 -0.0 6.693394386597207e-05 -0.012532813011572812 -0.0 -0.0 -0.0 9.702425936185526e-05" free_energy=-150.55417255 energy=-150.55342228 pbc="T T T"
C        0.00000000       0.00000000      13.77513000      -0.26816100      -0.15325500      -0.08026100
C        3.69000000       2.13042000      13.73517000      -0.00128600       0.00074300       0.41946900
C        2.46000000       0.00000000      13.77510000       0.26544600      -0.15325500      -0.08009600
C        1.23000000       2.13042000      13.77513000      -0.00135800       0.30886200      -0.08026100
C       -0.00005000       1.42031000      13.77394000      -0.26477500       0.15286800      -0.04535600
C       -1.23005000       3.55073000      13.77384000       0.00134500      -0.30810800      -0.04457600
C        2.45995000       1.42031000      13.77384000       0.26750200       0.15288900      -0.04457600
C        1.22995000       3.55073000      13.73418000       0.00137500      -0.00079400       0.45236900
C        0.00000000       0.00000000      10.22487000      -0.26816100      -0.15325500       0.08026100
C        3.69000000       2.13042000      10.26483000      -0.00128600       0.00074300      -0.41946900
C        2.46000000       0.00000000      10.22490000       0.26544600      -0.15325500       0.08009600
C        1.23000000       2.13042000      10.22487000      -0.00135800       0.30886200       0.08026100
C       -0.00005000       1.42031000      10.22606000      -0.26477500       0.15286800       0.04535600
C       -1.23005000       3.55073000      10.22616000       0.00134500      -0.30810800       0.04457600
C        2.45995000       1.42031000      10.22616000       0.26750200       0.15288900       0.04457600
C        1.22995000       3.55073000      10.26582000       0.00137500      -0.00079400      -0.45236900
Li       1.23001000       0.71012000      12.00000000      -0.00017600       0.00010100      -0.00000000
17
Lattice="4.920000076 0.0 0.0 -2.460000038 4.260845053 0.0 0.0 0.0 24.0" Properties=species:S:1:pos:R:3:forces:R:3 stress="-0.01197882290306854 6.840694001968051e-05 -0.0 6.840694001968051e-05 -0.011899830363571362 -0.0 -0.0 -0.0 -0.002754078384814239" free_energy=-150.45542664 energy=-150.45461975 pbc="T T T"
C        0.00000000       0.00000000      13.71062000      -0.29501000      -0.16889600       0.14074700
C        3.69000000       2.13042000      13.69117000      -0.00132600       0.00076600       0.16608200
C        2.46000000       0.00000000      13.71060000       0.29239400      -0.16881400       0.14082100
C        1.23000000       2.13042000      13.71062000      -0.00123700       0.33993400       0.14074700
C       -0.00005000       1.42031000      13.71087000      -0.29235000       0.16878800       0.13191800
C       -1.23005000       3.55073000      13.71083000       0.00123900      -0.33990300       0.13225800
C        2.45995000       1.42031000      13.71083000       0.29498400       0.16887800       0.13225800
C        1.22995000       3.55073000      13.69153000       0.00134500      -0.00077700       0.15714100
C        0.00000000       0.00000000      10.28938000      -0.29501000      -0.16889600      -0.14074700
C        3.69000000       2.13042000      10.30883000      -0.00132600       0.00076600      -0.16608200
C        2.46000000       0.00000000      10.28940000       0.29239400      -0.16881400      -0.14082100
C        1.23000000       2.13042000      10.28938000      -0.00123700       0.33993400      -0.14074700
C       -0.00005000       1.42031000      10.28913000      -0.29235000       0.16878800      -0.13191800
C       -1.23005000       3.55073000      10.28917000       0.00123900      -0.33990300      -0.13225800
C        2.45995000       1.42031000      10.28917000       0.29498400       0.16887800      -0.13225800
C        1.22995000       3.55073000      10.30847000       0.00134500      -0.00077700      -0.15714100
Li       1.22997000       0.71015000      12.00000000      -0.00008000       0.00004600       0.00000000
17
Lattice="4.920000076 0.0 0.0 -2.460000038 4.260845053 0.0 0.0 0.0 24.0" Properties=species:S:1:pos:R:3:forces:R:3 stress="-0.011574529149439454 6.83008343645405e-05 -0.0 6.83008343645405e-05 -0.011495667681633917 -0.0 -0.0 -0.0 -0.0014557009319206265" free_energy=-150.49477605 energy=-150.49394167 pbc="T T T"
C        0.00000000       0.00000000      13.72772000      -0.28581300      -0.16359600       0.13081800
C        3.69000000       2.13042000      13.70995000      -0.00131300       0.00075800       0.15058700
C        2.46000000       0.00000000      13.72770000       0.28322600      -0.16352100       0.13089100
C        1.23000000       2.13042000      13.72772000      -0.00122800       0.32931900       0.13081800
C       -0.00005000       1.42031000      13.72767000      -0.28321200       0.16351200       0.13076500
C       -1.23005000       3.55073000      13.72764000       0.00122700      -0.32932300       0.13101800
C        2.45995000       1.42031000      13.72764000       0.28581600       0.16359800       0.13101800
C        1.22995000       3.55073000      13.71000000       0.00133100      -0.00076800       0.14967600
C        0.00000000       0.00000000      10.27228000      -0.28581300      -0.16359600      -0.13081800
C        3.69000000       2.13042000      10.29005000      -0.00131300       0.00075800      -0.15058700
C        2.46000000       0.00000000      10.27230000       0.28322600      -0.16352100      -0.13089100
C        1.23000000       2.13042000      10.27228000      -0.00122800       0.32931900      -0.13081800
C       -0.00005000       1.42031000      10.27233000      -0.28321200       0.16351200      -0.13076500
C       -1.23005000       3.55073000      10.27236000       0.00122700      -0.32932300      -0.13101800
C        2.45995000       1.42031000      10.27236000       0.28581600       0.16359800      -0.13101800
C        1.22995000       3.55073000      10.29000000       0.00133100      -0.00076800      -0.14967600
Li       1.22997000       0.71014000      12.00000000      -0.00006800       0.00003900       0.00000000
17
Lattice="4.920000076 0.0 0.0 -2.460000038 4.260845053 0.0 0.0 0.0 24.0" Properties=species:S:1:pos:R:3:forces:R:3 stress="-0.011962120624647677 6.83694909649252e-05 -0.0 6.83694909649252e-05 -0.011883171775714381 -0.0 -0.0 -0.0 0.006145733168346579" free_energy=-150.62599477 energy=-150.6253922 pbc="T T T"
C        0.00000000       0.00000000      13.95219000      -0.20387500      -0.11606700       0.03066100
C        3.69000000       2.13042000      13.95386000      -0.00139600       0.00080600      -0.06514100
C        2.46000000       0.00000000      13.95222000       0.20104900      -0.11607600       0.03053300
C        1.23000000       2.13042000      13.95219000      -0.00142000       0.23459400       0.03066100
C       -0.00005000       1.42031000      13.95378000      -0.20073000       0.11589100      -0.01392200
C       -1.23005000       3.55073000      13.95384000       0.00139900      -0.23424400      -0.01438000
C        2.45995000       1.42031000      13.95384000       0.20356100       0.11591000      -0.01438000
C        1.22995000       3.55073000      13.95499000       0.00142200      -0.00082100      -0.10835300
C        0.00000000       0.00000000      10.04781000      -0.20387500      -0.11606700      -0.03066100
C        3.69000000       2.13042000      10.04614000      -0.00139600       0.00080600       0.06514100
C        2.46000000       0.00000000      10.04778000       0.20104900      -0.11607600      -0.03053300
C        1.23000000       2.13042000      10.04781000      -0.00142000       0.23459400      -0.03066100
C       -0.00005000       1.42031000      10.04622000      -0.20073000       0.11589100       0.01392200
C       -1.23005000       3.55073000      10.04616000       0.00139900      -0.23424400       0.01438000
C        2.45995000       1.42031000      10.04616000       0.20356100       0.11591000       0.01438000
C        1.22995000       3.55073000      10.04501000       0.00142200      -0.00082100       0.10835300
Li       1.23002000       0.71011000      12.00000000      -0.00002200       0.00001300       0.00000000
17
Lattice="4.920000076 0.0 0.0 -2.460000038 4.260845053 0.0 0.0 0.0 24.0" Properties=species:S:1:pos:R:3:forces:R:3 stress="-0.01210181184039407 6.75893023241898e-05 -0.0 6.75893023241898e-05 -0.012023768010284026 -0.0 -0.0 -0.0 0.005500985275642839" free_energy=-150.62499431 energy=-150.62420065 pbc="T T T"
C        0.00000000       0.00000000      13.91218000      -0.21388800      -0.12194000      -0.00609900
C        3.69000000       2.13042000      13.90661000      -0.00131100       0.00075700      -0.01354200
C        2.46000000       0.00000000      13.91220000       0.21122800      -0.12195300      -0.00616300
C        1.23000000       2.13042000      13.91218000      -0.00134100       0.24620300      -0.00609900
C       -0.00005000       1.42031000      13.91172000      -0.21124700       0.12196300       0.00927400
C       -1.23005000       3.55073000      13.91174000       0.00132200      -0.24624900       0.00907200
C        2.45995000       1.42031000      13.91174000       0.21391900       0.12198000       0.00907200
C        1.22995000       3.55073000      13.90584000       0.00133600      -0.00077100       0.00445700
C        0.00000000       0.00000000      10.08782000      -0.21388800      -0.12194000       0.00609900
C        3.69000000       2.13042000      10.09339000      -0.00131100       0.00075700       0.01354200
C        2.46000000       0.00000000      10.08780000       0.21122800      -0.12195300       0.00616300
C        1.23000000       2.13042000      10.08782000      -0.00134100       0.24620300       0.00609900
C       -0.00005000       1.42031000      10.08828000      -0.21124700       0.12196300      -0.00927400
C       -1.23005000       3.55073000      10.08826000       0.00132200      -0.24624900      -0.00907200
C        2.45995000       1.42031000      10.08826000       0.21391900       0.12198000      -0.00907200
C        1.22995000       3.55073000      10.09416000       0.00133600      -0.00077100      -0.00445700
Li       1.23001000       0.71012000      12.00000000      -0.00003600       0.00002100       0.00000000
17
Lattice="4.920000076 0.0 0.0 -2.460000038 4.260845053 0.0 0.0 0.0 24.0" Properties=species:S:1:pos:R:3:forces:R:3 stress="-0.01210149352342865 6.765795892457452e-05 -0.0 6.765795892457452e-05 -0.012023368553699969 -0.0 -0.0 -0.0 0.005419408751367545" free_energy=-150.6250581 energy=-150.62428126 pbc="T T T"
C        0.00000000       0.00000000      13.91410000      -0.21333300      -0.12160800       0.00655900
C        3.69000000       2.13042000      13.90834000      -0.00131700       0.00076000      -0.00926900
C        2.46000000       0.00000000      13.91412000       0.21065600      -0.12162200       0.00649700
C        1.23000000       2.13042000      13.91410000      -0.00135100       0.24555600       0.00655900
C       -0.00005000       1.42031000      13.91434000      -0.21061300       0.12159800       0.00133100
C       -1.23005000       3.55073000      13.91435000       0.00133100      -0.24553300       0.00121000
C        2.45995000       1.42031000      13.91435000       0.21330400       0.12161400       0.00121000
C        1.22995000       3.55073000      13.90837000       0.00134400      -0.00077600      -0.01304200
C        0.00000000       0.00000000      10.08590000      -0.21333300      -0.12160800      -0.00655900
C        3.69000000       2.13042000      10.09166000      -0.00131700       0.00076000       0.00926900
C        2.46000000       0.00000000      10.08588000       0.21065600      -0.12162200      -0.00649700
C        1.23000000       2.13042000      10.08590000      -0.00135100       0.24555600      -0.00655900
C       -0.00005000       1.42031000      10.08566000      -0.21061300       0.12159800      -0.00133100
C       -1.23005000       3.55073000      10.08565000       0.00133100      -0.24553300      -0.00121000
C        2.45995000       1.42031000      10.08565000       0.21330400       0.12161400      -0.00121000
C        1.22995000       3.55073000      10.09163000       0.00134400      -0.00077600       0.01304200
Li       1.23001000       0.71012000      12.00000000      -0.00003800       0.00002200       0.00000000
17
Lattice="4.920000076 0.0 0.0 -2.460000038 4.260845053 0.0 0.0 0.0 24.0" Properties=species:S:1:pos:R:3:forces:R:3 stress="-0.012100551055550642 6.762050986981922e-05 -0.0 6.762050986981922e-05 -0.012022463534876716 -0.0 -0.0 -0.0 0.005505766271633267" free_energy=-150.62504995 energy=-150.6242669 pbc="T T T"
C        0.00000000       0.00000000      13.91338000      -0.21356100      -0.12174300       0.00201800
C        3.69000000       2.13042000      13.90710000      -0.00131300       0.00075800       0.00535600
C        2.46000000       0.00000000      13.91339000       0.21089000      -0.12175700       0.00196600
C        1.23000000       2.13042000      13.91338000      -0.00134800       0.24582100       0.00201800
C       -0.00005000       1.42031000      13.91348000      -0.21085200       0.12173600       0.00026000
C       -1.23005000       3.55073000      13.91349000       0.00132800      -0.24580300       0.00017000
C        2.45995000       1.42031000      13.91349000       0.21353600       0.12175100       0.00017000
C        1.22995000       3.55073000      13.90705000       0.00134000      -0.00077300       0.00487000
C        0.00000000       0.00000000      10.08662000      -0.21356100      -0.12174300      -0.00201800
C        3.69000000       2.13042000      10.09290000      -0.00131300       0.00075800      -0.00535600
C        2.46000000       0.00000000      10.08661000       0.21089000      -0.12175700      -0.00196600
C        1.23000000       2.13042000      10.08662000      -0.00134800       0.24582100      -0.00201800
C       -0.00005000       1.42031000      10.08652000      -0.21085200       0.12173600      -0.00026000
C       -1.23005000       3.55073000      10.08651000       0.00132800      -0.24580300      -0.00017000
C        2.45995000       1.42031000      10.08651000       0.21353600       0.12175100      -0.00017000
C        1.22995000       3.55073000      10.09295000       0.00134000      -0.00077300      -0.00487000
Li       1.23001000       0.71012000      12.00000000      -0.00004000       0.00002300      -0.00000000
