17
Lattice="4.920000076 0.0 0.0 -2.460000038 4.260845053 0.0 0.0 0.0 24.0" Properties=species:S:1:pos:R:3:forces:R:3 stress="-0.012649941171829139 6.722729479488857e-05 -0.0 6.722729479488857e-05 -0.012572315522830528 -0.0 -0.0 -0.0 0.0012520904212160627" free_energy=-150.60360915 energy=-150.60300175 pbc="T T T"
C        0.00000000       0.00000000      13.80000000      -0.25030100      -0.14284900       0.10067000
C        3.69000000       2.13042000      13.80000000      -0.00144900       0.00083700      -0.08867400
C        2.46000000       0.00000000      13.80000000       0.24739100      -0.14283100       0.10062800
C        1.23000000       2.13042000      13.80000000      -0.00144000       0.28819100       0.10067000
C       -0.00005000       1.42031000      13.80000000      -0.24736200       0.14281400       0.10062900
C       -1.23005000       3.55073000      13.80000000       0.00144700      -0.28815900       0.10064200
C        2.45995000       1.42031000      13.80000000       0.25027600       0.14282600       0.10064200
C        1.22995000       3.55073000      13.80000000       0.00144200      -0.00083200      -0.08866400
C        0.00000000       0.00000000      10.20000000      -0.25030100      -0.14284900      -0.10067000
C        3.69000000       2.13042000      10.20000000      -0.00144900       0.00083700       0.08867400
C        2.46000000       0.00000000      10.20000000       0.24739100      -0.14283100      -0.10062800
C        1.23000000       2.13042000      10.20000000      -0.00144000       0.28819100      -0.10067000
C       -0.00005000       1.42031000      10.20000000      -0.24736200       0.14281400      -0.10062900
C       -1.23005000       3.55073000      10.20000000       0.00144700      -0.28815900      -0.10064200
C        2.45995000       1.42031000      10.20000000       0.25027600       0.14282600      -0.10064200
C        1.22995000       3.55073000      10.20000000       0.00144200      -0.00083200       0.08866400
Li       1.22995000       0.71016000      12.00000000      -0.00000900       0.00000500       0.00000000
17
Lattice="4.920000076 0.0 0.0 -2.460000038 4.260845053 0.0 0.0 0.0 24.0" Properties=species:S:1:pos:R:3:forces:R:3 stress="-0.012662648884409438 6.718360423100739e-05 -0.0 6.718360423100739e-05 -0.012585073167483831 -0.0 -0.0 -0.0 0.001439529181775463" free_energy=-150.60919344 energy=-150.60857129 pbc="T T T"
C        0.00000000       0.00000000      13.80486000      -0.24856200      -0.14185700       0.06882800
C        3.69000000       2.13042000      13.79572000      -0.00143900       0.00083100       0.01273600
C        2.46000000       0.00000000      13.80485000       0.24567300      -0.14183900       0.06886300
C        1.23000000       2.13042000      13.80486000      -0.00142900       0.28618900       0.06882800
C       -0.00005000       1.42031000      13.80485000      -0.24564300       0.14182200       0.06856000
C       -1.23005000       3.55073000      13.80486000       0.00143600      -0.28615400       0.06850500
C        2.45995000       1.42031000      13.80486000       0.24853500       0.14183300       0.06850500
C        1.22995000       3.55073000      13.79572000       0.00143200      -0.00082700       0.01303800
C        0.00000000       0.00000000      10.19514000      -0.24856200      -0.14185700      -0.06882800
C        3.69000000       2.13042000      10.20428000      -0.00143900       0.00083100      -0.01273600
C        2.46000000       0.00000000      10.19515000       0.24567300      -0.14183900      -0.06886300
C        1.23000000       2.13042000      10.19514000      -0.00142900       0.28618900      -0.06882800
C       -0.00005000       1.42031000      10.19515000      -0.24564300       0.14182200      -0.06856000
C       -1.23005000       3.55073000      10.19514000       0.00143600      -0.28615400      -0.06850500
C        2.45995000       1.42031000      10.19514000       0.24853500       0.14183300      -0.06850500
C        1.22995000       3.55073000      10.20428000       0.00143200      -0.00082700      -0.01303800
Li       1.22995000       0.71016000      12.00000000      -0.00000600       0.00000400      -0.00000000
17
Lattice="4.920000076 0.0 0.0 -2.460000038 4.260845053 0.0 0.0 0.0 24.0" Properties=species:S:1:pos:R:3:forces:R:3 stress="-0.013037857205511911 6.711494763062268e-05 -0.0 6.711494763062268e-05 -0.012960362628204944 -0.0 -0.0 -0.0 0.0013184002141694465" free_energy=-150.61208642 energy=-150.61143851 pbc="T T T"
C        0.00000000       0.00000000      13.80949000      -0.24723200      -0.14110000       0.03808400
C        3.69000000       2.13042000      13.79658000      -0.00142500       0.00082300       0.06004000
C        2.46000000       0.00000000      13.80949000       0.24436800      -0.14108600       0.03810600
C        1.23000000       2.13042000      13.80949000      -0.00142000       0.28466000       0.03808400
C       -0.00005000       1.42031000      13.80947000      -0.24434600       0.14107300       0.03789800
C       -1.23005000       3.55073000      13.80946000       0.00142700      -0.28463400       0.03786900
C        2.45995000       1.42031000      13.80946000       0.24721400       0.14108100       0.03786900
C        1.22995000       3.55073000      13.79660000       0.00141900      -0.00081900       0.06039400
C        0.00000000       0.00000000      10.19051000      -0.24723200      -0.14110000      -0.03808400
C        3.69000000       2.13042000      10.20342000      -0.00142500       0.00082300      -0.06004000
C        2.46000000       0.00000000      10.19051000       0.24436800      -0.14108600      -0.03810600
C        1.23000000       2.13042000      10.19051000      -0.00142000       0.28466000      -0.03808400
C       -0.00005000       1.42031000      10.19053000      -0.24434600       0.14107300      -0.03789800
C       -1.23005000       3.55073000      10.19054000       0.00142700      -0.28463400      -0.03786900
C        2.45995000       1.42031000      10.19054000       0.24721400       0.14108100      -0.03786900
C        1.22995000       3.55073000      10.20340000       0.00141900      -0.00081900      -0.06039400
Li       1.22995000       0.71016000      12.00000000      -0.00000700       0.00000400       0.00000000
17
Lattice="4.920000076 0.0 0.0 -2.460000038 4.260845053 0.0 0.0 0.0 24.0" Properties=species:S:1:pos:R:3:forces:R:3 stress="-0.013164896882260137 6.697763442985325e-05 -0.0 6.697763442985325e-05 -0.013087552101172191 -0.0 -0.0 -0.0 0.0014301606765775123" free_energy=-150.61709253 energy=-150.61638065 pbc="T T T"
C        0.00000000       0.00000000      13.81512000      -0.24463400      -0.13962900       0.07344500
C        3.69000000       2.13042000      13.80939000      -0.00139800       0.00080700      -0.02325300
C        2.46000000       0.00000000      13.81512000       0.24182200      -0.13961600       0.07337500
C        1.23000000       2.13042000      13.81512000      -0.00139500       0.28167300       0.07344500
C       -0.00005000       1.42031000      13.81507000      -0.24180800       0.13960800       0.07331600
C       -1.23005000       3.55073000      13.81506000       0.00140700      -0.28166500       0.07338400
C        2.45995000       1.42031000      13.81506000       0.24463200       0.13961400       0.07338400
C        1.22995000       3.55073000      13.80948000       0.00137900      -0.00079600      -0.02394700
C        0.00000000       0.00000000      10.18488000      -0.24463400      -0.13962900      -0.07344500
C        3.69000000       2.13042000      10.19061000      -0.00139800       0.00080700       0.02325300
C        2.46000000       0.00000000      10.18488000       0.24182200      -0.13961600      -0.07337500
C        1.23000000       2.13042000      10.18488000      -0.00139500       0.28167300      -0.07344500
C       -0.00005000       1.42031000      10.18493000      -0.24180800       0.13960800      -0.07331600
C       -1.23005000       3.55073000      10.18494000       0.00140700      -0.28166500      -0.07338400
C        2.45995000       1.42031000      10.18494000       0.24463200       0.13961400      -0.07338400
C        1.22995000       3.55073000      10.19052000       0.00137900      -0.00079600       0.02394700
Li       1.22995000       0.71016000      12.00000000      -0.00001100       0.00000700       0.00000000
17
Lattice="4.920000076 0.0 0.0 -2.460000038 4.260845053 0.0 0.0 0.0 24.0" Properties=species:S:1:pos:R:3:forces:R:3 stress="-0.013042195054354399 6.705877404848973e-05 -0.0 6.705877404848973e-05 -0.012964762892138692 -0.0 -0.0 -0.0 0.0014436111287437906" free_energy=-150.61420587 energy=-150.61353491 pbc="T T T"
C        0.00000000       0.00000000      13.81201000      -0.24620200      -0.14051400       0.04631800
C        3.69000000       2.13042000      13.80030000      -0.00141600       0.00081800       0.05306000
C        2.46000000       0.00000000      13.81201000       0.24335400      -0.14050100       0.04631900
C        1.23000000       2.13042000      13.81201000      -0.00141200       0.28347400       0.04631800
C       -0.00005000       1.42031000      13.81198000      -0.24333500       0.14049000       0.04615300
C       -1.23005000       3.55073000      13.81198000       0.00142000      -0.28345300       0.04614800
C        2.45995000       1.42031000      13.81198000       0.24618700       0.14049700       0.04614800
C        1.22995000       3.55073000      13.80034000       0.00140900      -0.00081300       0.05315500
C        0.00000000       0.00000000      10.18799000      -0.24620200      -0.14051400      -0.04631800
C        3.69000000       2.13042000      10.19970000      -0.00141600       0.00081800      -0.05306000
C        2.46000000       0.00000000      10.18799000       0.24335400      -0.14050100      -0.04631900
C        1.23000000       2.13042000      10.18799000      -0.00141200       0.28347400      -0.04631800
C       -0.00005000       1.42031000      10.18802000      -0.24333500       0.14049000      -0.04615300
C       -1.23005000       3.55073000      10.18802000       0.00142000      -0.28345300      -0.04614800
C        2.45995000       1.42031000      10.18802000       0.24618700       0.14049700      -0.04614800
C        1.22995000       3.55073000      10.19966000       0.00140900      -0.00081300      -0.05315500
Li       1.22995000       0.71016000      12.00000000      -0.00001000       0.00000600       0.00000000
17
Lattice="4.920000076 0.0 0.0 -2.460000038 4.260845053 0.0 0.0 0.0 24.0" Properties=species:S:1:pos:R:3:forces:R:3 stress="-0.013043455839197826 6.701508348460854e-05 -0.0 6.701508348460854e-05 -0.012966073609055124 -0.0 -0.0 -0.0 0.001525387381311113" free_energy=-150.61618033 energy=-150.61548757 pbc="T T T"
C        0.00000000       0.00000000      13.81441000      -0.24524700      -0.13997300       0.05025900
C        3.69000000       2.13042000      13.80307000      -0.00140700       0.00081200       0.05343300
C        2.46000000       0.00000000      13.81442000       0.24241800      -0.13996000       0.05025700
C        1.23000000       2.13042000      13.81441000      -0.00140300       0.28237700       0.05025900
C       -0.00005000       1.42031000      13.81437000      -0.24240100       0.13995000       0.05016500
C       -1.23005000       3.55073000      13.81437000       0.00141400      -0.28236200       0.05016400
C        2.45995000       1.42031000      13.81437000       0.24524000       0.13995700       0.05016400
C        1.22995000       3.55073000      13.80311000       0.00139200      -0.00080400       0.05342800
C        0.00000000       0.00000000      10.18559000      -0.24524700      -0.13997300      -0.05025900
C        3.69000000       2.13042000      10.19693000      -0.00140700       0.00081200      -0.05343300
C        2.46000000       0.00000000      10.18558000       0.24241800      -0.13996000      -0.05025700
C        1.23000000       2.13042000      10.18559000      -0.00140300       0.28237700      -0.05025900
C       -0.00005000       1.42031000      10.18563000      -0.24240100       0.13995000      -0.05016500
C       -1.23005000       3.55073000      10.18563000       0.00141400      -0.28236200      -0.05016400
C        2.45995000       1.42031000      10.18563000       0.24524000       0.13995700      -0.05016400
C        1.22995000       3.55073000      10.19689000       0.00139200      -0.00080400      -0.05342800
Li       1.22995000       0.71016000      12.00000000      -0.00001100       0.00000600       0.00000000
17
Lattice="4.920000076 0.0 0.0 -2.460000038 4.260845053 0.0 0.0 0.0 24.0" Properties=species:S:1:pos:R:3:forces:R:3 stress="-0.013040759507255445 6.728346837702153e-05 -0.0 6.728346837702153e-05 -0.01296306520165645 -0.0 -0.0 -0.0 0.0001421940609058724" free_energy=-150.59012327 energy=-150.5895109 pbc="T T T"
C        0.00000000       0.00000000      13.78325000      -0.25783500      -0.14720600       0.04991300
C        3.69000000       2.13042000      13.76958000      -0.00145000       0.00083700       0.09795000
C        2.46000000       0.00000000      13.78325000       0.25492900      -0.14718300       0.04989800
C        1.23000000       2.13042000      13.78325000      -0.00143400       0.29689500       0.04991300
C       -0.00005000       1.42031000      13.78327000      -0.25490100       0.14716700       0.05016100
C       -1.23005000       3.55073000      13.78327000       0.00144400      -0.29687600       0.05016400
C        2.45995000       1.42031000      13.78327000       0.25782400       0.14718700       0.05016400
C        1.22995000       3.55073000      13.76962000       0.00143000      -0.00082600       0.09832500
C        0.00000000       0.00000000      10.21675000      -0.25783500      -0.14720600      -0.04991300
C        3.69000000       2.13042000      10.23042000      -0.00145000       0.00083700      -0.09795000
C        2.46000000       0.00000000      10.21675000       0.25492900      -0.14718300      -0.04989800
C        1.23000000       2.13042000      10.21675000      -0.00143400       0.29689500      -0.04991300
C       -0.00005000       1.42031000      10.21673000      -0.25490100       0.14716700      -0.05016100
C       -1.23005000       3.55073000      10.21673000       0.00144400      -0.29687600      -0.05016400
C        2.45995000       1.42031000      10.21673000       0.25782400       0.14718700      -0.05016400
C        1.22995000       3.55073000      10.23038000       0.00143000      -0.00082600      -0.09832500
Li       1.22996000       0.71015000      12.00000000      -0.00001600       0.00000900      -0.00000000
17
Lattice="4.920000076 0.0 0.0 -2.460000038 4.260845053 0.0 0.0 0.0 24.0" Properties=species:S:1:pos:R:3:forces:R:3 stress="-0.011961109500169285 6.627234389862844e-05 -0.0 6.627234389862844e-05 -0.011884588598285955 -0.0 -0.0 -0.0 0.0032657260954085192" free_energy=-150.63585063 energy=-150.6348026 pbc="T T T"
C        0.00000000       0.00000000      13.85369000      -0.23131700      -0.13213900      -0.01274200
C        3.69000000       2.13042000      13.84268000      -0.00122100       0.00070500       0.02414000
C        2.46000000       0.00000000      13.85369000       0.22886400      -0.13213500      -0.01272600
C        1.23000000       2.13042000      13.85369000      -0.00122300       0.26639600      -0.01274200
C       -0.00005000       1.42031000      13.85355000      -0.22887300       0.13214000      -0.01041900
C       -1.23005000       3.55073000      13.85355000       0.00123300      -0.26640200      -0.01042300
C        2.45995000       1.42031000      13.85355000       0.23132800       0.13213300      -0.01042300
C        1.22995000       3.55073000      13.84270000       0.00120800      -0.00069700       0.02515500
C        0.00000000       0.00000000      10.14631000      -0.23131700      -0.13213900       0.01274200
C        3.69000000       2.13042000      10.15732000      -0.00122100       0.00070500      -0.02414000
C        2.46000000       0.00000000      10.14631000       0.22886400      -0.13213500       0.01272600
C        1.23000000       2.13042000      10.14631000      -0.00122300       0.26639600       0.01274200
C       -0.00005000       1.42031000      10.14645000      -0.22887300       0.13214000       0.01041900
C       -1.23005000       3.55073000      10.14645000       0.00123300      -0.26640200       0.01042300
C        2.45995000       1.42031000      10.14645000       0.23132800       0.13213300       0.01042300
C        1.22995000       3.55073000      10.15730000       0.00120800      -0.00069700      -0.02515500
Li       1.22994000       0.71016000      12.00000000       0.00000200      -0.00000100       0.00000000
17
Lattice="4.920000076 0.0 0.0 -2.460000038 4.260845053 0.0 0.0 0.0 24.0" Properties=species:S:1:pos:R:3:forces:R:3 stress="-0.011974347741025283 6.62848269168802e-05 -0.0 6.62848269168802e-05 -0.011897808114614578 -0.0 -0.0 -0.0 0.002915240391953671" free_energy=-150.63587539 energy=-150.63483415 pbc="T T T"
C        0.00000000       0.00000000      13.85174000      -0.23195500      -0.13250400       0.00650700
C        3.69000000       2.13042000      13.84246000      -0.00122500       0.00070700       0.00406500
C        2.46000000       0.00000000      13.85174000       0.22949500      -0.13249900       0.00650100
C        1.23000000       2.13042000      13.85174000      -0.00122600       0.26713100       0.00650700
C       -0.00005000       1.42031000      13.85171000      -0.22949900       0.13250100       0.00588200
C       -1.23005000       3.55073000      13.85171000       0.00123600      -0.26713300       0.00589100
C        2.45995000       1.42031000      13.85171000       0.23196200       0.13249600       0.00589100
C        1.22995000       3.55073000      13.84254000       0.00121200      -0.00070000       0.00253400
C        0.00000000       0.00000000      10.14826000      -0.23195500      -0.13250400      -0.00650700
C        3.69000000       2.13042000      10.15754000      -0.00122500       0.00070700      -0.00406500
C        2.46000000       0.00000000      10.14826000       0.22949500      -0.13249900      -0.00650100
C        1.23000000       2.13042000      10.14826000      -0.00122600       0.26713100      -0.00650700
C       -0.00005000       1.42031000      10.14829000      -0.22949900       0.13250100      -0.00588200
C       -1.23005000       3.55073000      10.14829000       0.00123600      -0.26713300      -0.00589100
C        2.45995000       1.42031000      10.14829000       0.23196200       0.13249600      -0.00589100
C        1.22995000       3.55073000      10.15746000       0.00121200      -0.00070000      -0.00253400
Li       1.22994000       0.71016000      12.00000000       0.00000200      -0.00000100       0.00000000
