17
Lattice="4.920000076 0.0 0.0 -2.460000038 4.260845053 0.0 0.0 0.0 24.0" Properties=species:S:1:pos:R:3:forces:R:3 stress="-0.01191711934385006 5.55119821656057e-05 -0.0 5.55119821656057e-05 -0.011853012803618113 -0.0 -0.0 -0.0 -0.001221931449119795" free_energy=-150.54591309 energy=-150.54505985 pbc="T T T"
C        0.00000000       0.00000000      13.75000000      -0.27510400      -0.15564500       0.17063900
C        3.69000000       2.13042000      13.75000000      -0.00284700       0.00164400      -0.06560200
C        2.46000000       0.00000000      13.75000000       0.26946500      -0.15557600       0.17055100
C        1.23000000       2.13042000      13.75000000      -0.00275900       0.31606900       0.17063900
C       -0.00005000       1.42031000      13.75000000      -0.26914600       0.15539100       0.16749200
C       -1.23005000       3.55073000      13.75000000       0.00291600      -0.31613000       0.16772900
C        2.45995000       1.42031000      13.75000000       0.27523400       0.15554000       0.16772900
C        1.22995000       3.55073000      13.75000000       0.00299400      -0.00172900      -0.06853800
C        0.00000000       0.00000000      10.25000000      -0.27510400      -0.15564500      -0.17063900
C        3.69000000       2.13042000      10.25000000      -0.00284700       0.00164400       0.06560200
C        2.46000000       0.00000000      10.25000000       0.26946500      -0.15557600      -0.17055100
C        1.23000000       2.13042000      10.25000000      -0.00275900       0.31606900      -0.17063900
C       -0.00005000       1.42031000      10.25000000      -0.26914600       0.15539100      -0.16749200
C       -1.23005000       3.55073000      10.25000000       0.00291600      -0.31613000      -0.16772900
C        2.45995000       1.42031000      10.25000000       0.27523400       0.15554000      -0.16772900
C        1.22995000       3.55073000      10.25000000       0.00299400      -0.00172900       0.06853800
Li       1.22995000       0.71016000      12.00000000      -0.00150700       0.00087000      -0.00000000
17
Lattice="4.920000076 0.0 0.0 -2.460000038 4.260845053 0.0 0.0 0.0 24.0" Properties=species:S:1:pos:R:3:forces:R:3 stress="-0.011826810948307655 6.745198912342038e-05 -0.0 6.745198912342038e-05 -0.011748929397434884 -0.0 -0.0 -0.0 -0.0005988103855372398" free_energy=-150.5595288 energy=-150.55870299 pbc="T T T"
C        0.00000000       0.00000000      13.75823000      -0.26941800      -0.15410000       0.11621700
C        3.69000000       2.13042000      13.74684000      -0.00137600       0.00079400       0.07744200
C        2.46000000       0.00000000      13.75823000       0.26675200      -0.15401000       0.11622400
C        1.23000000       2.13042000      13.75823000      -0.00125500       0.31037300       0.11621700
C       -0.00005000       1.42031000      13.75808000      -0.26681100       0.15404300       0.12173800
C       -1.23005000       3.55073000      13.75809000       0.00129900      -0.31037300       0.12151300
C        2.45995000       1.42031000      13.75809000       0.26944100       0.15406200       0.12151300
C        1.22995000       3.55073000      13.74669000       0.00131100      -0.00075700       0.08233900
C        0.00000000       0.00000000      10.24177000      -0.26941800      -0.15410000      -0.11621700
C        3.69000000       2.13042000      10.25316000      -0.00137600       0.00079400      -0.07744200
C        2.46000000       0.00000000      10.24177000       0.26675200      -0.15401000      -0.11622400
C        1.23000000       2.13042000      10.24177000      -0.00125500       0.31037300      -0.11621700
C       -0.00005000       1.42031000      10.24192000      -0.26681100       0.15404300      -0.12173800
C       -1.23005000       3.55073000      10.24191000       0.00129900      -0.31037300      -0.12151300
C        2.45995000       1.42031000      10.24191000       0.26944100       0.15406200      -0.12151300
C        1.22995000       3.55073000      10.25331000       0.00131100      -0.00075700      -0.08233900
Li       1.22988000       0.71020000      12.00000000       0.00011200      -0.00006500       0.00000000
17
Lattice="4.920000076 0.0 0.0 -2.460000038 4.260845053 0.0 0.0 0.0 24.0" Properties=species:S:1:pos:R:3:forces:R:3 stress="-0.012449800940198567 6.733340045002859e-05 -0.0 6.733340045002859e-05 -0.012372050461017437 -0.0 -0.0 -0.0 -0.00036252557455867726" free_energy=-150.56999343 energy=-150.56922251 pbc="T T T"
C        0.00000000       0.00000000      13.76501000      -0.26622500      -0.15220200       0.10646300
C        3.69000000       2.13042000      13.75135000      -0.00139700       0.00080600       0.09210800
C        2.46000000       0.00000000      13.76501000       0.26349300      -0.15212800       0.10645400
C        1.23000000       2.13042000      13.76501000      -0.00130100       0.30665900       0.10646300
C       -0.00005000       1.42031000      13.76519000      -0.26348000       0.15212000       0.10299100
C       -1.23005000       3.55073000      13.76518000       0.00134200      -0.30658700       0.10290000
C        2.45995000       1.42031000      13.76518000       0.26618300       0.15213100       0.10290000
C        1.22995000       3.55073000      13.75150000       0.00134000      -0.00077400       0.08840600
C        0.00000000       0.00000000      10.23499000      -0.26622500      -0.15220200      -0.10646300
C        3.69000000       2.13042000      10.24865000      -0.00139700       0.00080600      -0.09210800
C        2.46000000       0.00000000      10.23499000       0.26349300      -0.15212800      -0.10645400
C        1.23000000       2.13042000      10.23499000      -0.00130100       0.30665900      -0.10646300
C       -0.00005000       1.42031000      10.23481000      -0.26348000       0.15212000      -0.10299100
C       -1.23005000       3.55073000      10.23482000       0.00134200      -0.30658700      -0.10290000
C        2.45995000       1.42031000      10.23482000       0.26618300       0.15213100      -0.10290000
C        1.22995000       3.55073000      10.24850000       0.00134000      -0.00077400      -0.08840600
Li       1.22988000       0.71019000      12.00000000       0.00008800      -0.00005100       0.00000000
17
Lattice="4.920000076 0.0 0.0 -2.460000038 4.260845053 0.0 0.0 0.0 24.0" Properties=species:S:1:pos:R:3:forces:R:3 stress="-0.012769977875338125 6.718360423100739e-05 -0.0 6.718360423100739e-05 -0.012692408399921648 -0.0 -0.0 -0.0 0.0009730887217799551" free_energy=-150.60013631 energy=-150.59955131 pbc="T T T"
C        0.00000000       0.00000000      13.79805000      -0.25255700      -0.14414700       0.01366500
C        3.69000000       2.13042000      13.77890000      -0.00145900       0.00084300       0.11538000
C        2.46000000       0.00000000      13.79804000       0.24962100      -0.14411900       0.01365400
C        1.23000000       2.13042000      13.79805000      -0.00144300       0.29079400       0.01366500
C       -0.00005000       1.42031000      13.79756000      -0.24955900       0.14408300       0.02889800
C       -1.23005000       3.55073000      13.79752000       0.00147000      -0.29069400       0.02914000
C        2.45995000       1.42031000      13.79752000       0.25248300       0.14407400       0.02914000
C        1.22995000       3.55073000      13.77829000       0.00144000      -0.00083100       0.13264700
C        0.00000000       0.00000000      10.20195000      -0.25255700      -0.14414700      -0.01366500
C        3.69000000       2.13042000      10.22110000      -0.00145900       0.00084300      -0.11538000
C        2.46000000       0.00000000      10.20196000       0.24962100      -0.14411900      -0.01365400
C        1.23000000       2.13042000      10.20195000      -0.00144300       0.29079400      -0.01366500
C       -0.00005000       1.42031000      10.20244000      -0.24955900       0.14408300      -0.02889800
C       -1.23005000       3.55073000      10.20248000       0.00147000      -0.29069400      -0.02914000
C        2.45995000       1.42031000      10.20248000       0.25248300       0.14407400      -0.02914000
C        1.22995000       3.55073000      10.22171000       0.00144000      -0.00083100      -0.13264700
Li       1.22991000       0.71018000      12.00000000       0.00000800      -0.00000500       0.00000000
17
Lattice="4.920000076 0.0 0.0 -2.460000038 4.260845053 0.0 0.0 0.0 24.0" Properties=species:S:1:pos:R:3:forces:R:3 stress="-0.012781618289857896 6.720857026751092e-05 -0.0 6.720857026751092e-05 -0.012704011365386665 -0.0 -0.0 -0.0 0.0011146024581911065" free_energy=-150.60380429 energy=-150.60321108 pbc="T T T"
C        0.00000000       0.00000000      13.79978000      -0.25098500      -0.14324300       0.04647600
C        3.69000000       2.13042000      13.78555000      -0.00146200       0.00084400       0.07895100
C        2.46000000       0.00000000      13.79978000       0.24805400      -0.14321400       0.04648200
C        1.23000000       2.13042000      13.79978000      -0.00144000       0.28898100       0.04647600
C       -0.00005000       1.42031000      13.80004000      -0.24803200       0.14320100       0.03951300
C       -1.23005000       3.55073000      13.80001000       0.00146600      -0.28893100       0.03966200
C        2.45995000       1.42031000      13.80001000       0.25095500       0.14319600       0.03966200
C        1.22995000       3.55073000      13.78579000       0.00143900      -0.00083100       0.07289300
C        0.00000000       0.00000000      10.20022000      -0.25098500      -0.14324300      -0.04647600
C        3.69000000       2.13042000      10.21445000      -0.00146200       0.00084400      -0.07895100
C        2.46000000       0.00000000      10.20022000       0.24805400      -0.14321400      -0.04648200
C        1.23000000       2.13042000      10.20022000      -0.00144000       0.28898100      -0.04647600
C       -0.00005000       1.42031000      10.19996000      -0.24803200       0.14320100      -0.03951300
C       -1.23005000       3.55073000      10.19999000       0.00146600      -0.28893100      -0.03966200
C        2.45995000       1.42031000      10.19999000       0.25095500       0.14319600      -0.03966200
C        1.22995000       3.55073000      10.21421000       0.00143900      -0.00083100      -0.07289300
Li       1.22991000       0.71018000      12.00000000       0.00001200      -0.00000700       0.00000000
17
Lattice="4.920000076 0.0 0.0 -2.460000038 4.260845053 0.0 0.0 0.0 24.0" Properties=species:S:1:pos:R:3:forces:R:3 stress="-0.01278460173122007 6.719608724925917e-05 -0.0 6.719608724925917e-05 -0.012707013531276214 -0.0 -0.0 -0.0 0.0012291840827240714" free_energy=-150.60655028 energy=-150.60594497 pbc="T T T"
C        0.00000000       0.00000000      13.80258000      -0.24976400      -0.14254800       0.05140100
C        3.69000000       2.13042000      13.79017000      -0.00145700       0.00084100       0.06019400
C        2.46000000       0.00000000      13.80257000       0.24685000      -0.14251900       0.05142200
C        1.23000000       2.13042000      13.80258000      -0.00143200       0.28757600       0.05140100
C       -0.00005000       1.42031000      13.80244000      -0.24685200       0.14252000       0.05507600
C       -1.23005000       3.55073000      13.80242000       0.00145800      -0.28755800       0.05514700
C        2.45995000       1.42031000      13.80242000       0.24976200       0.14251600       0.05514700
C        1.22995000       3.55073000      13.79007000       0.00142600      -0.00082300       0.06448900
C        0.00000000       0.00000000      10.19742000      -0.24976400      -0.14254800      -0.05140100
C        3.69000000       2.13042000      10.20983000      -0.00145700       0.00084100      -0.06019400
C        2.46000000       0.00000000      10.19743000       0.24685000      -0.14251900      -0.05142200
C        1.23000000       2.13042000      10.19742000      -0.00143200       0.28757600      -0.05140100
C       -0.00005000       1.42031000      10.19756000      -0.24685200       0.14252000      -0.05507600
C       -1.23005000       3.55073000      10.19758000       0.00145800      -0.28755800      -0.05514700
C        2.45995000       1.42031000      10.19758000       0.24976200       0.14251600      -0.05514700
C        1.22995000       3.55073000      10.20993000       0.00142600      -0.00082300      -0.06448900
Li       1.22991000       0.71018000      12.00000000       0.00001900      -0.00001100      -0.00000000
17
Lattice="4.920000076 0.0 0.0 -2.460000038 4.260845053 0.0 0.0 0.0 24.0" Properties=species:S:1:pos:R:3:forces:R:3 stress="-0.012785344470806051 6.72210532857627e-05 -0.0 6.72210532857627e-05 -0.01270773130482569 -0.0 -0.0 -0.0 0.0011274287594447965" free_energy=-150.60410414 energy=-150.60350969 pbc="T T T"
C        0.00000000       0.00000000      13.79997000      -0.25086900      -0.14317800       0.04374000
C        3.69000000       2.13042000      13.78722000      -0.00146300       0.00084500       0.05452000
C        2.46000000       0.00000000      13.79996000       0.24793900      -0.14314800       0.04376200
C        1.23000000       2.13042000      13.79997000      -0.00143900       0.28884800       0.04374000
C       -0.00005000       1.42031000      13.79958000      -0.24796800       0.14316400       0.05490800
C       -1.23005000       3.55073000      13.79956000       0.00146500      -0.28885700       0.05501100
C        2.45995000       1.42031000      13.79956000       0.25089000       0.14316000       0.05501100
C        1.22995000       3.55073000      13.78684000       0.00143700      -0.00083000       0.06665800
C        0.00000000       0.00000000      10.20003000      -0.25086900      -0.14317800      -0.04374000
C        3.69000000       2.13042000      10.21278000      -0.00146300       0.00084500      -0.05452000
C        2.46000000       0.00000000      10.20004000       0.24793900      -0.14314800      -0.04376200
C        1.23000000       2.13042000      10.20003000      -0.00143900       0.28884800      -0.04374000
C       -0.00005000       1.42031000      10.20042000      -0.24796800       0.14316400      -0.05490800
C       -1.23005000       3.55073000      10.20044000       0.00146500      -0.28885700      -0.05501100
C        2.45995000       1.42031000      10.20044000       0.25089000       0.14316000      -0.05501100
C        1.22995000       3.55073000      10.21316000       0.00143700      -0.00083000      -0.06665800
Li       1.22991000       0.71018000      12.00000000       0.00001500      -0.00000900       0.00000000
17
Lattice="4.920000076 0.0 0.0 -2.460000038 4.260845053 0.0 0.0 0.0 24.0" Properties=species:S:1:pos:R:3:forces:R:3 stress="-0.013038262903605092 6.726474384964388e-05 -0.0 6.726474384964388e-05 -0.0129605935640426 -0.0 -0.0 -0.0 0.0001232198731631873" free_energy=-150.58916622 energy=-150.58854887 pbc="T T T"
C        0.00000000       0.00000000      13.78230000      -0.25823400      -0.14745300       0.05465000
C        3.69000000       2.13042000      13.76794000      -0.00145600       0.00084100       0.11237400
C        2.46000000       0.00000000      13.78229000       0.25532500      -0.14741200       0.05470300
C        1.23000000       2.13042000      13.78230000      -0.00141900       0.29736400       0.05465000
C       -0.00005000       1.42031000      13.78293000      -0.25524900       0.14736800       0.03795800
C       -1.23005000       3.55073000      13.78290000       0.00145500      -0.29725700       0.03815500
C        2.45995000       1.42031000      13.78290000       0.25816000       0.14736900       0.03815500
C        1.22995000       3.55073000      13.76850000       0.00141300      -0.00081600       0.09613700
C        0.00000000       0.00000000      10.21770000      -0.25823400      -0.14745300      -0.05465000
C        3.69000000       2.13042000      10.23206000      -0.00145600       0.00084100      -0.11237400
C        2.46000000       0.00000000      10.21771000       0.25532500      -0.14741200      -0.05470300
C        1.23000000       2.13042000      10.21770000      -0.00141900       0.29736400      -0.05465000
C       -0.00005000       1.42031000      10.21707000      -0.25524900       0.14736800      -0.03795800
C       -1.23005000       3.55073000      10.21710000       0.00145500      -0.29725700      -0.03815500
C        2.45995000       1.42031000      10.21710000       0.25816000       0.14736900      -0.03815500
C        1.22995000       3.55073000      10.23150000       0.00141300      -0.00081600      -0.09613700
Li       1.22991000       0.71018000      12.00000000       0.00001300      -0.00000800      -0.00000000
17
Lattice="4.920000076 0.0 0.0 -2.460000038 4.260845053 0.0 0.0 0.0 24.0" Properties=species:S:1:pos:R:3:forces:R:3 stress="-0.013039267786574358 6.700884197548267e-05 -0.0 6.700884197548267e-05 -0.012961891797940783 -0.0 -0.0 -0.0 0.0014526675584854473" free_energy=-150.61565592 energy=-150.61496742 pbc="T T T"
C        0.00000000       0.00000000      13.81397000      -0.24549900      -0.14012400       0.05107500
C        3.69000000       2.13042000      13.80129000      -0.00141800       0.00081900       0.07283700
C        2.46000000       0.00000000      13.81397000       0.24266100      -0.14010000       0.05108800
C        1.23000000       2.13042000      13.81397000      -0.00139900       0.28267000       0.05107500
C       -0.00005000       1.42031000      13.81436000      -0.24262500       0.14008000       0.03865800
C       -1.23005000       3.55073000      13.81435000       0.00142300      -0.28261500       0.03867600
C        2.45995000       1.42031000      13.81435000       0.24546300       0.14007500       0.03867600
C        1.22995000       3.55073000      13.80180000       0.00138600      -0.00080000       0.06003200
C        0.00000000       0.00000000      10.18603000      -0.24549900      -0.14012400      -0.05107500
C        3.69000000       2.13042000      10.19871000      -0.00141800       0.00081900      -0.07283700
C        2.46000000       0.00000000      10.18603000       0.24266100      -0.14010000      -0.05108800
C        1.23000000       2.13042000      10.18603000      -0.00139900       0.28267000      -0.05107500
C       -0.00005000       1.42031000      10.18564000      -0.24262500       0.14008000      -0.03865800
C       -1.23005000       3.55073000      10.18565000       0.00142300      -0.28261500      -0.03867600
C        2.45995000       1.42031000      10.18565000       0.24546300       0.14007500      -0.03867600
C        1.22995000       3.55073000      10.19820000       0.00138600      -0.00080000      -0.06003200
Li       1.22992000       0.71017000      12.00000000       0.00001500      -0.00000800      -0.00000000
17
Lattice="4.920000076 0.0 0.0 -2.460000038 4.260845053 0.0 0.0 0.0 24.0" Properties=species:S:1:pos:R:3:forces:R:3 stress="-0.011585083541371322 6.647831369978259e-05 -0.0 6.647831369978259e-05 -0.011508319220632083 -0.0 -0.0 -0.0 0.0045084105623718765" free_energy=-150.6306033 energy=-150.62955153 pbc="T T T"
C        0.00000000       0.00000000      13.87637000      -0.22424600      -0.12806300      -0.03717900
C        3.69000000       2.13042000      13.86463000      -0.00121900       0.00070400       0.01326700
C        2.46000000       0.00000000      13.87638000       0.22180900      -0.12806200      -0.03725400
C        1.23000000       2.13042000      13.87637000      -0.00121700       0.25823500      -0.03717900
C       -0.00005000       1.42031000      13.87608000      -0.22180500       0.12805900      -0.02994000
C       -1.23005000       3.55073000      13.87609000       0.00123000      -0.25823600      -0.03009000
C        2.45995000       1.42031000      13.87609000       0.22425300       0.12805300      -0.03009000
C        1.22995000       3.55073000      13.86473000       0.00119000      -0.00068700       0.01741400
C        0.00000000       0.00000000      10.12363000      -0.22424600      -0.12806300       0.03717900
C        3.69000000       2.13042000      10.13537000      -0.00121900       0.00070400      -0.01326700
C        2.46000000       0.00000000      10.12362000       0.22180900      -0.12806200       0.03725400
C        1.23000000       2.13042000      10.12363000      -0.00121700       0.25823500       0.03717900
C       -0.00005000       1.42031000      10.12392000      -0.22180500       0.12805900       0.02994000
C       -1.23005000       3.55073000      10.12391000       0.00123000      -0.25823600       0.03009000
C        2.45995000       1.42031000      10.12391000       0.22425300       0.12805300       0.03009000
C        1.22995000       3.55073000      10.13527000       0.00119000      -0.00068700      -0.01741400
Li       1.22994000       0.71016000      12.00000000       0.00001000      -0.00000600      -0.00000000
17
Lattice="4.920000076 0.0 0.0 -2.460000038 4.260845053 0.0 0.0 0.0 24.0" Properties=species:S:1:pos:R:3:forces:R:3 stress="-0.011879557941930494 6.627234389862844e-05 -0.0 6.627234389862844e-05 -0.01180303079853804 -0.0 -0.0 -0.0 0.003675830694033805" free_energy=-150.63590836 energy=-150.63485427 pbc="T T T"
C        0.00000000       0.00000000      13.85491000      -0.23084500      -0.13187200      -0.01843900
C        3.69000000       2.13042000      13.84482000      -0.00122100       0.00070500       0.01830100
C        2.46000000       0.00000000      13.85492000       0.22839800      -0.13186600      -0.01848200
C        1.23000000       2.13042000      13.85491000      -0.00121800       0.26585400      -0.01843900
C       -0.00005000       1.42031000      13.85488000      -0.22840300       0.13186900      -0.01930300
C       -1.23005000       3.55073000      13.85488000       0.00123000      -0.26585300      -0.01934200
C        2.45995000       1.42031000      13.85488000       0.23085000       0.13186100      -0.01934200
C        1.22995000       3.55073000      13.84498000       0.00120300      -0.00069400       0.01579300
C        0.00000000       0.00000000      10.14509000      -0.23084500      -0.13187200       0.01843900
C        3.69000000       2.13042000      10.15518000      -0.00122100       0.00070500      -0.01830100
C        2.46000000       0.00000000      10.14508000       0.22839800      -0.13186600       0.01848200
C        1.23000000       2.13042000      10.14509000      -0.00121800       0.26585400       0.01843900
C       -0.00005000       1.42031000      10.14512000      -0.22840300       0.13186900       0.01930300
C       -1.23005000       3.55073000      10.14512000       0.00123000      -0.26585300       0.01934200
C        2.45995000       1.42031000      10.14512000       0.23085000       0.13186100       0.01934200
C        1.22995000       3.55073000      10.15502000       0.00120300      -0.00069400      -0.01579300
Li       1.22994000       0.71016000      12.00000000       0.00001200      -0.00000700       0.00000000
17
Lattice="4.920000076 0.0 0.0 -2.460000038 4.260845053 0.0 0.0 0.0 24.0" Properties=species:S:1:pos:R:3:forces:R:3 stress="-0.012845131886722885 6.660938539142614e-05 -0.0 6.660938539142614e-05 -0.012768224011273751 -0.0 -0.0 -0.0 0.0020503045403070207" free_energy=-150.63133474 energy=-150.63045797 pbc="T T T"
C        0.00000000       0.00000000      13.83108000      -0.23874600      -0.13633400       0.02385000
C        3.69000000       2.13042000      13.82386000      -0.00131600       0.00076000       0.02017500
C        2.46000000       0.00000000      13.83108000       0.23610900      -0.13631800       0.02384900
C        1.23000000       2.13042000      13.83108000      -0.00130400       0.27492700       0.02385000
C       -0.00005000       1.42031000      13.83086000      -0.23614900       0.13634100       0.02922500
C       -1.23005000       3.55073000      13.83085000       0.00132000      -0.27495800       0.02926800
C        2.45995000       1.42031000      13.83085000       0.23878100       0.13633600       0.02926800
C        1.22995000       3.55073000      13.82361000       0.00130000      -0.00075100       0.02601100
C        0.00000000       0.00000000      10.16892000      -0.23874600      -0.13633400      -0.02385000
C        3.69000000       2.13042000      10.17614000      -0.00131600       0.00076000      -0.02017500
C        2.46000000       0.00000000      10.16892000       0.23610900      -0.13631800      -0.02384900
C        1.23000000       2.13042000      10.16892000      -0.00130400       0.27492700      -0.02385000
C       -0.00005000       1.42031000      10.16914000      -0.23614900       0.13634100      -0.02922500
C       -1.23005000       3.55073000      10.16915000       0.00132000      -0.27495800      -0.02926800
C        2.45995000       1.42031000      10.16915000       0.23878100       0.13633600      -0.02926800
C        1.22995000       3.55073000      10.17639000       0.00130000      -0.00075100      -0.02601100
Li       1.22993000       0.71017000      12.00000000       0.00001000      -0.00000600       0.00000000
17
Lattice="4.920000076 0.0 0.0 -2.460000038 4.260845053 0.0 0.0 0.0 24.0" Properties=species:S:1:pos:R:3:forces:R:3 stress="-0.012057934031239111 6.634100049901315e-05 -0.0 6.634100049901315e-05 -0.01198132574822802 -0.0 -0.0 -0.0 0.0029083123168239405" free_energy=-150.63488289 energy=-150.63387783 pbc="T T T"
C        0.00000000       0.00000000      13.84541000      -0.23391600      -0.13361700       0.01630200
C        3.69000000       2.13042000      13.83746000      -0.00125000       0.00072200      -0.01077800
C        2.46000000       0.00000000      13.84541000       0.23141300      -0.13360600       0.01628200
C        1.23000000       2.13042000      13.84541000      -0.00124200       0.26938600       0.01630200
C       -0.00005000       1.42031000      13.84538000      -0.23140400       0.13360100       0.01576700
C       -1.23005000       3.55073000      13.84537000       0.00125800      -0.26936900       0.01576300
C        2.45995000       1.42031000      13.84537000       0.23390900       0.13359500       0.01576300
C        1.22995000       3.55073000      13.83749000       0.00122700      -0.00070800      -0.01185800
C        0.00000000       0.00000000      10.15459000      -0.23391600      -0.13361700      -0.01630200
C        3.69000000       2.13042000      10.16254000      -0.00125000       0.00072200       0.01077800
C        2.46000000       0.00000000      10.15459000       0.23141300      -0.13360600      -0.01628200
C        1.23000000       2.13042000      10.15459000      -0.00124200       0.26938600      -0.01630200
C       -0.00005000       1.42031000      10.15462000      -0.23140400       0.13360100      -0.01576700
C       -1.23005000       3.55073000      10.15463000       0.00125800      -0.26936900      -0.01576300
C        2.45995000       1.42031000      10.15463000       0.23390900       0.13359500      -0.01576300
C        1.22995000       3.55073000      10.16251000       0.00122700      -0.00070800       0.01185800
Li       1.22993000       0.71017000      12.00000000       0.00000900      -0.00000500       0.00000000
17
Lattice="4.920000076 0.0 0.0 -2.460000038 4.260845053 0.0 0.0 0.0 24.0" Properties=species:S:1:pos:R:3:forces:R:3 stress="-0.012061085993347681 6.632851748076139e-05 -0.0 6.632851748076139e-05 -0.011984496434863968 -0.0 -0.0 -0.0 0.002985382471510347" free_energy=-150.63517693 energy=-150.63416227 pbc="T T T"
C        0.00000000       0.00000000      13.84720000      -0.23341900      -0.13333600       0.01156900
C        3.69000000       2.13042000      13.83781000      -0.00124400       0.00071800       0.00670600
C        2.46000000       0.00000000      13.84720000       0.23092600      -0.13332500       0.01156600
C        1.23000000       2.13042000      13.84720000      -0.00123700       0.26881400       0.01156900
C       -0.00005000       1.42031000      13.84714000      -0.23092200       0.13332300       0.01216900
C       -1.23005000       3.55073000      13.84714000       0.00125300      -0.26880300       0.01215600
C        2.45995000       1.42031000      13.84714000       0.23341600       0.13331600       0.01215600
C        1.22995000       3.55073000      13.83779000       0.00122200      -0.00070600       0.00685600
C        0.00000000       0.00000000      10.15280000      -0.23341900      -0.13333600      -0.01156900
C        3.69000000       2.13042000      10.16219000      -0.00124400       0.00071800      -0.00670600
C        2.46000000       0.00000000      10.15280000       0.23092600      -0.13332500      -0.01156600
C        1.23000000       2.13042000      10.15280000      -0.00123700       0.26881400      -0.01156900
C       -0.00005000       1.42031000      10.15286000      -0.23092200       0.13332300      -0.01216900
C       -1.23005000       3.55073000      10.15286000       0.00125300      -0.26880300      -0.01215600
C        2.45995000       1.42031000      10.15286000       0.23341600       0.13331600      -0.01215600
C        1.22995000       3.55073000      10.16221000       0.00122200      -0.00070600      -0.00685600
Li       1.22993000       0.71016000      12.00000000       0.00000800      -0.00000500      -0.00000000
17
Lattice="4.920000076 0.0 0.0 -2.460000038 4.260845053 0.0 0.0 0.0 24.0" Properties=species:S:1:pos:R:3:forces:R:3 stress="-0.012062752476284294 6.63222759716355e-05 -0.0 6.63222759716355e-05 -0.011986175400818833 -0.0 -0.0 -0.0 0.003008925443933179" free_energy=-150.63528696 energy=-150.63426823 pbc="T T T"
C        0.00000000       0.00000000      13.84786000      -0.23322900      -0.13322800       0.01160300
C        3.69000000       2.13042000      13.83821000      -0.00124200       0.00071700       0.01119300