17
Lattice="4.920000076 0.0 0.0 -2.460000038 4.260845053 0.0 0.0 0.0 24.0" Properties=species:S:1:pos:R:3:forces:R:3 stress="-0.01281636477116169 6.417519683233166e-05 -0.0 6.417519683233166e-05 -0.012742259333310078 -0.0 -0.0 -0.0 -0.009617778589420296" free_energy=-150.11436755 energy=-150.11151121 pbc="T T T"
C        0.00000000       0.00000000      13.60000000      -0.38075500      -0.21951400       0.37270200
C        3.69000000       2.13042000      13.60000000      -0.00053400       0.00030800      -0.02441900
C        2.46000000       0.00000000      13.60000000       0.37987000      -0.21931800       0.37242900
C        1.23000000       2.13042000      13.60000000      -0.00027300       0.43950000       0.37270200
C       -0.00005000       1.42031000      13.60000000      -0.37987000       0.21931800       0.37120300
C       -1.23005000       3.55073000      13.60000000       0.00028200      -0.43948100       0.37141500
C        2.45995000       1.42031000      13.60000000       0.38074300       0.21949600       0.37141500
C        1.22995000       3.55073000      13.60000000       0.00052600      -0.00030400      -0.02566200
C        0.00000000       0.00000000      10.40000000      -0.38075500      -0.21951400      -0.37270200
C        3.69000000       2.13042000      10.40000000      -0.00053400       0.00030800       0.02441900
C        2.46000000       0.00000000      10.40000000       0.37987000      -0.21931800      -0.37242900
C        1.23000000       2.13042000      10.40000000      -0.00027300       0.43950000      -0.37270200
C       -0.00005000       1.42031000      10.40000000      -0.37987000       0.21931800      -0.37120300
C       -1.23005000       3.55073000      10.40000000       0.00028200      -0.43948100      -0.37141500
C        2.45995000       1.42031000      10.40000000       0.38074300       0.21949600      -0.37141500
C        1.22995000       3.55073000      10.40000000       0.00052600      -0.00030400       0.02566200
Li       1.22995000       0.71016000      12.00000000       0.00002100      -0.00001200       0.00000000
17
Lattice="4.920000076 0.0 0.0 -2.460000038 4.260845053 0.0 0.0 0.0 24.0" Properties=species:S:1:pos:R:3:forces:R:3 stress="-0.01312104403914168 6.280206482463736e-05 -0.0 6.280206482463736e-05 -0.013048523944608044 -0.0 -0.0 -0.0 -0.009033567093728498" free_energy=-150.18348617 energy=-150.18032341 pbc="T T T"
C        0.00000000       0.00000000      13.61798000      -0.36088700      -0.20808100       0.27981500
C        3.69000000       2.13042000      13.59882000      -0.00044800       0.00025900       0.20461300
C        2.46000000       0.00000000      13.61797000       0.36014500      -0.20793000       0.27989100
C        1.23000000       2.13042000      13.61798000      -0.00024000       0.41657800       0.27981500
C       -0.00005000       1.42031000      13.61791000      -0.36016000       0.20793800       0.28144000
C       -1.23005000       3.55073000      13.61792000       0.00025200      -0.41658700       0.28133600
C        2.45995000       1.42031000      13.61792000       0.36090100       0.20807600       0.28133600
C        1.22995000       3.55073000      13.59876000       0.00043200      -0.00025000       0.20513000
C        0.00000000       0.00000000      10.38202000      -0.36088700      -0.20808100      -0.27981500
C        3.69000000       2.13042000      10.40118000      -0.00044800       0.00025900      -0.20461300
C        2.46000000       0.00000000      10.38203000       0.36014500      -0.20793000      -0.27989100
C        1.23000000       2.13042000      10.38202000      -0.00024000       0.41657800      -0.27981500
C       -0.00005000       1.42031000      10.38209000      -0.36016000       0.20793800      -0.28144000
C       -1.23005000       3.55073000      10.38208000       0.00025200      -0.41658700      -0.28133600
C        2.45995000       1.42031000      10.38208000       0.36090100       0.20807600      -0.28133600
C        1.22995000       3.55073000      10.40124000       0.00043200      -0.00025000      -0.20513000
Li       1.22995000       0.71015000      12.00000000       0.00001000      -0.00000600      -0.00000000
17
Lattice="4.920000076 0.0 0.0 -2.460000038 4.260845053 0.0 0.0 0.0 24.0" Properties=species:S:1:pos:R:3:forces:R:3 stress="-0.012812669797759167 6.372580817526807e-05 -0.0 6.372580817526807e-05 -0.01273908864667413 -0.0 -0.0 -0.0 -0.007903454485359571" free_energy=-150.2526478 energy=-150.25003178 pbc="T T T"
C        0.00000000       0.00000000      13.63664000      -0.34341400      -0.19768600       0.19703400
C        3.69000000       2.13042000      13.61247000      -0.00067500       0.00039000       0.26690800
C        2.46000000       0.00000000      13.63664000       0.34218200      -0.19755900       0.19709000
C        1.23000000       2.13042000      13.63664000      -0.00050600       0.39624800       0.19703400
C       -0.00005000       1.42031000      13.63668000      -0.34215100       0.19754100       0.19754900
C       -1.23005000       3.55073000      13.63668000       0.00051100      -0.39619700       0.19748400
C        2.45995000       1.42031000      13.63668000       0.34337200       0.19765500       0.19748400
C        1.22995000       3.55073000      13.61244000       0.00067600      -0.00039000       0.26573400
C        0.00000000       0.00000000      10.36336000      -0.34341400      -0.19768600      -0.19703400
C        3.69000000       2.13042000      10.38753000      -0.00067500       0.00039000      -0.26690800
C        2.46000000       0.00000000      10.36336000       0.34218200      -0.19755900      -0.19709000
C        1.23000000       2.13042000      10.36336000      -0.00050600       0.39624800      -0.19703400
C       -0.00005000       1.42031000      10.36332000      -0.34215100       0.19754100      -0.19754900
C       -1.23005000       3.55073000      10.36332000       0.00051100      -0.39619700      -0.19748400
C        2.45995000       1.42031000      10.36332000       0.34337200       0.19765500      -0.19748400
C        1.22995000       3.55073000      10.38756000       0.00067600      -0.00039000      -0.26573400
Li       1.22995000       0.71015000      12.00000000       0.00001100      -0.00000600      -0.00000000
17
Lattice="4.920000076 0.0 0.0 -2.460000038 4.260845053 0.0 0.0 0.0 24.0" Properties=species:S:1:pos:R:3:forces:R:3 stress="-0.011981775136885083 6.848183812919111e-05 -0.0 6.848183812919111e-05 -0.011902701457769267 -0.0 -0.0 -0.0 -0.004133826392181993" free_energy=-150.40468011 energy=-150.40390891 pbc="T T T"
C        0.00000000       0.00000000      13.68741000      -0.30682600      -0.17569900       0.22010200
C        3.69000000       2.13042000      13.68598000      -0.00138100       0.00079700      -0.05829100
C        2.46000000       0.00000000      13.68742000       0.30413700      -0.17559400       0.21985100
C        1.23000000       2.13042000      13.68741000      -0.00125300       0.35356900       0.22010200
C       -0.00005000       1.42031000      13.68755000      -0.30403900       0.17553700       0.21839700
C       -1.23005000       3.55073000      13.68754000       0.00125800      -0.35345700       0.21866800
C        2.45995000       1.42031000      13.68754000       0.30673200       0.17563900       0.21866800
C        1.22995000       3.55073000      13.68560000       0.00137700      -0.00079500      -0.05593300
C        0.00000000       0.00000000      10.31259000      -0.30682600      -0.17569900      -0.22010200
C        3.69000000       2.13042000      10.31402000      -0.00138100       0.00079700       0.05829100
C        2.46000000       0.00000000      10.31258000       0.30413700      -0.17559400      -0.21985100
C        1.23000000       2.13042000      10.31259000      -0.00125300       0.35356900      -0.22010200
C       -0.00005000       1.42031000      10.31245000      -0.30403900       0.17553700      -0.21839700
C       -1.23005000       3.55073000      10.31246000       0.00125800      -0.35345700      -0.21866800
C        2.45995000       1.42031000      10.31246000       0.30673200       0.17563900      -0.21866800
C        1.22995000       3.55073000      10.31440000       0.00137700      -0.00079500       0.05593300
Li       1.22996000       0.71015000      12.00000000      -0.00000900       0.00000500      -0.00000000
17
Lattice="4.920000076 0.0 0.0 -2.460000038 4.260845053 0.0 0.0 0.0 24.0" Properties=species:S:1:pos:R:3:forces:R:3 stress="-0.011835343091282736 6.743326459604272e-05 -0.0 6.743326459604272e-05 -0.011757480264937342 -0.0 -0.0 -0.0 -0.000801103937816242" free_energy=-150.55606908 energy=-150.55523359 pbc="T T T"
C        0.00000000       0.00000000      13.75561000      -0.27052300      -0.15471500       0.13249000
C        3.69000000       2.13042000      13.74818000      -0.00133700       0.00077200       0.02350300
C        2.46000000       0.00000000      13.75562000       0.26787900      -0.15466000       0.13235200
C        1.23000000       2.13042000      13.75561000      -0.00127500       0.31163700       0.13249000
C       -0.00005000       1.42031000      13.75582000      -0.26778700       0.15460700       0.13144700
C       -1.23005000       3.55073000      13.75581000       0.00127900      -0.31153900       0.13162500
C        2.45995000       1.42031000      13.75581000       0.27044000       0.15466200       0.13162500
C        1.22995000       3.55073000      13.74771000       0.00133100      -0.00076900       0.02673700
C        0.00000000       0.00000000      10.24439000      -0.27052300      -0.15471500      -0.13249000
C        3.69000000       2.13042000      10.25182000      -0.00133700       0.00077200      -0.02350300
C        2.46000000       0.00000000      10.24438000       0.26787900      -0.15466000      -0.13235200
C        1.23000000       2.13042000      10.24439000      -0.00127500       0.31163700      -0.13249000
C       -0.00005000       1.42031000      10.24418000      -0.26778700       0.15460700      -0.13144700
C       -1.23005000       3.55073000      10.24419000       0.00127900      -0.31153900      -0.13162500
C        2.45995000       1.42031000      10.24419000       0.27044000       0.15466200      -0.13162500
C        1.22995000       3.55073000      10.25229000       0.00133100      -0.00076900      -0.02673700
Li       1.22996000       0.71015000      12.00000000      -0.00001500       0.00000900       0.00000000
17
Lattice="4.920000076 0.0 0.0 -2.460000038 4.260845053 0.0 0.0 0.0 24.0" Properties=species:S:1:pos:R:3:forces:R:3 stress="-0.01284611180365565 6.657817784579672e-05 -0.0 6.657817784579672e-05 -0.012769235135752146 -0.0 -0.0 -0.0 0.0020655587886106797" free_energy=-150.63132984 energy=-150.63044662 pbc="T T T"
C        0.00000000       0.00000000      13.83220000      -0.23851200      -0.13619100       0.01705400
C        3.69000000       2.13042000      13.82188000      -0.00130000       0.00075100       0.06063800
C        2.46000000       0.00000000      13.83220000       0.23588400      -0.13618800       0.01701200
C        1.23000000       2.13042000      13.83220000      -0.00131100       0.27465300       0.01705400
C       -0.00005000       1.42031000      13.83247000      -0.23582500       0.13615300       0.01161900
C       -1.23005000       3.55073000      13.83246000       0.00131000      -0.27458400       0.01170200
C        2.45995000       1.42031000      13.83246000       0.23845200       0.13615700       0.01170200
C        1.22995000       3.55073000      13.82153000       0.00131100      -0.00075700       0.05946700
C        0.00000000       0.00000000      10.16780000      -0.23851200      -0.13619100      -0.01705400
C        3.69000000       2.13042000      10.17812000      -0.00130000       0.00075100      -0.06063800
C        2.46000000       0.00000000      10.16780000       0.23588400      -0.13618800      -0.01701200
C        1.23000000       2.13042000      10.16780000      -0.00131100       0.27465300      -0.01705400
C       -0.00005000       1.42031000      10.16753000      -0.23582500       0.13615300      -0.01161900
C       -1.23005000       3.55073000      10.16754000       0.00131000      -0.27458400      -0.01170200
C        2.45995000       1.42031000      10.16754000       0.23845200       0.13615700      -0.01170200
C        1.22995000       3.55073000      10.17847000       0.00131100      -0.00075700      -0.05946700
Li       1.22996000       0.71015000      12.00000000      -0.00001800       0.00001100      -0.00000000
17
Lattice="4.920000076 0.0 0.0 -2.460000038 4.260845053 0.0 0.0 0.0 24.0" Properties=species:S:1:pos:R:3:forces:R:3 stress="-0.012718291938266686 6.64720721906567e-05 -0.0 6.64720721906567e-05 -0.012641540100545698 -0.0 -0.0 -0.0 0.0026541143746540933" free_energy=-150.63374367 energy=-150.63280029 pbc="T T T"
C        0.00000000       0.00000000      13.83792000      -0.23635500      -0.13498300       0.01664500
C        3.69000000       2.13042000      13.83001000      -0.00127100       0.00073400       0.01129600
C        2.46000000       0.00000000      13.83792000       0.23379200      -0.13498000       0.01662200
C        1.23000000       2.13042000      13.83792000      -0.00127900       0.27218100       0.01664500
C       -0.00005000       1.42031000      13.83792000      -0.23377300       0.13496900       0.01787700
C       -1.23005000       3.55073000      13.83791000       0.00128100      -0.27216500       0.01792200
C        2.45995000       1.42031000      13.83791000       0.23634200       0.13497300       0.01792200
C        1.22995000       3.55073000      13.82960000       0.00127100      -0.00073400       0.03946500
C        0.00000000       0.00000000      10.16208000      -0.23635500      -0.13498300      -0.01664500
C        3.69000000       2.13042000      10.16999000      -0.00127100       0.00073400      -0.01129600
C        2.46000000       0.00000000      10.16208000       0.23379200      -0.13498000      -0.01662200
C        1.23000000       2.13042000      10.16208000      -0.00127900       0.27218100      -0.01664500
C       -0.00005000       1.42031000      10.16208000      -0.23377300       0.13496900      -0.01787700
C       -1.23005000       3.55073000      10.16209000       0.00128100      -0.27216500      -0.01792200
C        2.45995000       1.42031000      10.16209000       0.23634200       0.13497300      -0.01792200
C        1.22995000       3.55073000      10.17040000       0.00127100      -0.00073400      -0.03946500
Li       1.22996000       0.71015000      12.00000000      -0.00001500       0.00000900      -0.00000000
17
Lattice="4.920000076 0.0 0.0 -2.460000038 4.260845053 0.0 0.0 0.0 24.0" Properties=species:S:1:pos:R:3:forces:R:3 stress="-0.012718710119378121 6.643462313590141e-05 -0.0 6.643462313590141e-05 -0.012642001972221015 -0.0 -0.0 -0.0 0.0026794549017051792" free_energy=-150.63429094 energy=-150.63332166 pbc="T T T"
C        0.00000000       0.00000000      13.84072000      -0.23538500      -0.13443600       0.02958400
C        3.69000000       2.13042000      13.83257000      -0.00126100       0.00072800      -0.00244500
C        2.46000000       0.00000000      13.84072000       0.23284500      -0.13443300       0.02958500
C        1.23000000       2.13042000      13.84072000      -0.00126700       0.27106700       0.02958400
C       -0.00005000       1.42031000      13.84079000      -0.23279000       0.13440100       0.01868400
C       -1.23005000       3.55073000      13.84079000       0.00127200      -0.27101100       0.01870100
C        2.45995000       1.42031000      13.84079000       0.23533800       0.13440400       0.01870100
C        1.22995000       3.55073000      13.83399000       0.00125400      -0.00072400      -0.03526700
C        0.00000000       0.00000000      10.15928000      -0.23538500      -0.13443600      -0.02958400
C        3.69000000       2.13042000      10.16743000      -0.00126100       0.00072800       0.00244500
C        2.46000000       0.00000000      10.15928000       0.23284500      -0.13443300      -0.02958500
C        1.23000000       2.13042000      10.15928000      -0.00126700       0.27106700      -0.02958400
C       -0.00005000       1.42031000      10.15921000      -0.23279000       0.13440100      -0.01868400
C       -1.23005000       3.55073000      10.15921000       0.00127200      -0.27101100      -0.01870100
C        2.45995000       1.42031000      10.15921000       0.23533800       0.13440400      -0.01870100
C        1.22995000       3.55073000      10.16601000       0.00125400      -0.00072400       0.03526700
Li       1.22996000       0.71015000      12.00000000      -0.00001400       0.00000800      -0.00000000
17
Lattice="4.920000076 0.0 0.0 -2.460000038 4.260845053 0.0 0.0 0.0 24.0" Properties=species:S:1:pos:R:3:forces:R:3 stress="-0.01272380319082484 6.643462313590141e-05 -0.0 6.643462313590141e-05 -0.01264708880215861 -0.0 -0.0 -0.0 0.0026224636818767393" free_energy=-150.63427762 energy=-150.63331242 pbc="T T T"
C        0.00000000       0.00000000      13.84045000      -0.23553500      -0.13452100       0.02166300
C        3.69000000       2.13042000      13.83174000      -0.00126200       0.00072900      -0.00081900
C        2.46000000       0.00000000      13.84045000       0.23299200      -0.13451800       0.02166600
C        1.23000000       2.13042000      13.84045000      -0.00126900       0.27124000       0.02166300
C       -0.00005000       1.42031000      13.84033000      -0.23298300       0.13451300       0.01937400
C       -1.23005000       3.55073000      13.84032000       0.00127300      -0.27123700       0.01938500
C        2.45995000       1.42031000      13.84032000       0.23553500       0.13451600       0.01938500
C        1.22995000       3.55073000      13.83241000       0.00125500      -0.00072500      -0.00841500
C        0.00000000       0.00000000      10.15955000      -0.23553500      -0.13452100      -0.02166300
C        3.69000000       2.13042000      10.16826000      -0.00126200       0.00072900       0.00081900
C        2.46000000       0.00000000      10.15955000       0.23299200      -0.13451800      -0.02166600
C        1.23000000       2.13042000      10.15955000      -0.00126900       0.27124000      -0.02166300
C       -0.00005000       1.42031000      10.15967000      -0.23298300       0.13451300      -0.01937400
C       -1.23005000       3.55073000      10.15968000       0.00127300      -0.27123700      -0.01938500
C        2.45995000       1.42031000      10.15968000       0.23553500       0.13451600      -0.01938500
C        1.22995000       3.55073000      10.16759000       0.00125500      -0.00072500       0.00841500
Li       1.22996000       0.71015000      12.00000000      -0.00001400       0.00000800      -0.00000000
17
Lattice="4.920000076 0.0 0.0 -2.460000038 4.260845053 0.0 0.0 0.0 24.0" Properties=species:S:1:pos:R:3:forces:R:3 stress="-0.012170680652089068 6.639717408114611e-05 -0.0 6.639717408114611e-05 -0.012094009953986719 -0.0 -0.0 -0.0 0.0027451967173281076" free_energy=-150.63365275 energy=-150.63268703 pbc="T T T"
C        0.00000000       0.00000000      13.84163000      -0.23566400      -0.13459900      -0.01040300
C        3.69000000       2.13042000      13.82819000      -0.00126200       0.00072900       0.10763300
C        2.46000000       0.00000000      13.84163000       0.23312300      -0.13459400      -0.01038400
C        1.23000000       2.13042000      13.84163000      -0.00126600       0.27139100      -0.01040300
C       -0.00005000       1.42031000      13.84158000      -0.23309400       0.13457700      -0.01030900
C       -1.23005000       3.55073000      13.84158000       0.00127100      -0.27135700      -0.01033700
C        2.45995000       1.42031000      13.84158000       0.23563800       0.13457800      -0.01033700
C        1.22995000       3.55073000      13.82814000       0.00126000      -0.00072700       0.10784000
C        0.00000000       0.00000000      10.15837000      -0.23566400      -0.13459900       0.01040300
C        3.69000000       2.13042000      10.17181000      -0.00126200       0.00072900      -0.10763300
C        2.46000000       0.00000000      10.15837000       0.23312300      -0.13459400       0.01038400
C        1.23000000       2.13042000      10.15837000      -0.00126600       0.27139100       0.01040300
C       -0.00005000       1.42031000      10.15842000      -0.23309400       0.13457700       0.01030900
C       -1.23005000       3.55073000      10.15842000       0.00127100      -0.27135700       0.01033700
C        2.45995000       1.42031000      10.15842000       0.23563800       0.13457800       0.01033700
C        1.22995000       3.55073000      10.17186000       0.00126000      -0.00072700      -0.10784000
Li       1.22995000       0.71015000      12.00000000      -0.00000900       0.00000500      -0.00000000
17
Lattice="4.920000076 0.0 0.0 -2.460000038 4.260845053 0.0 0.0 0.0 24.0" Properties=species:S:1:pos:R:3:forces:R:3 stress="-0.012063769842271812 6.573557411380247e-05 -0.0 6.573557411380247e-05 -0.011987866849791945 -0.0 -0.0 -0.0 0.002863017685097406" free_energy=-150.6346465 energy=-150.63364663 pbc="T T T"
C        0.00000000       0.00000000      13.84591000      -0.23436200      -0.13369300      -0.00608000
C        3.69000000       2.13042000      13.83282000      -0.00139600       0.00080600       0.05187000
C        2.46000000       0.00000000      13.84591000       0.23155500      -0.13368900      -0.00606100
C        1.23000000       2.13042000      13.84591000      -0.00140000       0.26981000      -0.00608000
C       -0.00005000       1.42031000      13.84572000      -0.23184500       0.13385600      -0.00282400
C       -1.23005000       3.55073000      13.84571000       0.00110700      -0.26962800      -0.00286400
C        2.45995000       1.42031000      13.84571000       0.23405800       0.13385500      -0.00286400
C        1.22995000       3.55073000      13.83286000       0.00236200      -0.00136300       0.04913500
C        0.00000000       0.00000000      10.15409000      -0.23436200      -0.13369300       0.00608000
C        3.69000000       2.13042000      10.16718000      -0.00139600       0.00080600      -0.05187000
C        2.46000000       0.00000000      10.15409000       0.23155500      -0.13368900       0.00606100
C        1.23000000       2.13042000      10.15409000      -0.00140000       0.26981000       0.00608000
C       -0.00005000       1.42031000      10.15428000      -0.23184500       0.13385600       0.00282400
C       -1.23005000       3.55073000      10.15429000       0.00110700      -0.26962800       0.00286400
C        2.45995000       1.42031000      10.15429000       0.23405800       0.13385500       0.00286400
C        1.22995000       3.55073000      10.16714000       0.00236200      -0.00136300      -0.04913500
Li       1.22995000       0.71015000      12.00000000      -0.00015700       0.00009100       0.00000000
17
Lattice="4.920000076 0.0 0.0 -2.460000038 4.260845053 0.0 0.0 0.0 24.0" Properties=species:S:1:pos:R:3:forces:R:3 stress="-0.012064512581857792 6.629730993513197e-05 -0.0 6.629730993513197e-05 -0.011987954230919709 -0.0 -0.0 -0.0 0.0030589199320315034" free_energy=-150.63529003 energy=-150.63426462 pbc="T T T"
C        0.00000000       0.00000000      13.84960000      -0.23292600      -0.13305600       0.00070700
C        3.69000000       2.13042000      13.83707000      -0.00123700       0.00071400       0.04274700
C        2.46000000       0.00000000      13.84960000       0.23044600      -0.13304800       0.00069800
C        1.23000000       2.13042000      13.84960000      -0.00123300       0.26824800       0.00070700
C       -0.00005000       1.42031000      13.84956000      -0.23042700       0.13303700       0.00163200
C       -1.23005000       3.55073000      13.84956000       0.00124700      -0.26822100       0.00160400
C        2.45995000       1.42031000      13.84956000       0.23291000       0.13303100       0.00160400
C        1.22995000       3.55073000      13.83692000       0.00121700      -0.00070300       0.04415500
C        0.00000000       0.00000000      10.15040000      -0.23292600      -0.13305600      -0.00070700
C        3.69000000       2.13042000      10.16293000      -0.00123700       0.00071400      -0.04274700
C        2.46000000       0.00000000      10.15040000       0.23044600      -0.13304800      -0.00069800
C        1.23000000       2.13042000      10.15040000      -0.00123300       0.26824800      -0.00070700
C       -0.00005000       1.42031000      10.15044000      -0.23042700       0.13303700      -0.00163200
C       -1.23005000       3.55073000      10.15044000       0.00124700      -0.26822100      -0.00160400
C        2.45995000       1.42031000      10.15044000       0.23291000       0.13303100      -0.00160400
C        1.22995000       3.55073000      10.16308000       0.00121700      -0.00070300      -0.04415500
Li       1.22994000       0.71016000      12.00000000       0.00000700      -0.00000400       0.00000000
17
Lattice="4.920000076 0.0 0.0 -2.460000038 4.260845053 0.0 0.0 0.0 24.0" Properties=species:S:1:pos:R:3:forces:R:3 stress="-0.012065523706336186 6.629730993513197e-05 -0.0 6.629730993513197e-05 -0.011988971596907226 -0.0 -0.0 -0.0 0.003076489780220865" free_energy=-150.63534966 energy=-150.63432256 pbc="T T T"
C        0.00000000       0.00000000      13.84987000      -0.23284400      -0.13301000       0.00174900
C        3.69000000       2.13042000      13.83736000      -0.00123600       0.00071300       0.04374700
C        2.46000000       0.00000000      13.84987000       0.23036600      -0.13300200       0.00174100
C        1.23000000       2.13042000      13.84987000      -0.00123200       0.26815400       0.00174900
C       -0.00005000       1.42031000      13.84984000      -0.23035200       0.13299400       0.00238000
C       -1.23005000       3.55073000      13.84984000       0.00124600      -0.26813200       0.00235300
C        2.45995000       1.42031000      13.84984000       0.23283200       0.13298700       0.00235300
C        1.22995000       3.55073000      13.83723000       0.00121600      -0.00070200       0.04474600
C        0.00000000       0.00000000      10.15013000      -0.23284400      -0.13301000      -0.00174900
C        3.69000000       2.13042000      10.16264000      -0.00123600       0.00071300      -0.04374700
C        2.46000000       0.00000000      10.15013000       0.23036600      -0.13300200      -0.00174100
C        1.23000000       2.13042000      10.15013000      -0.00123200       0.26815400      -0.00174900
C       -0.00005000       1.42031000      10.15016000      -0.23035200       0.13299400      -0.00238000
C       -1.23005000       3.55073000      10.15016000       0.00124600      -0.26813200      -0.00235300
C        2.45995000       1.42031000      10.15016000       0.23283200       0.13298700      -0.00235300
C        1.22995000       3.55073000      10.16277000       0.00121600      -0.00070200      -0.04474600
Li       1.22994000       0.71016000      12.00000000       0.00000700      -0.00000400       0.00000000
17
Lattice="4.920000076 0.0 0.0 -2.460000038 4.260845053 0.0 0.0 0.0 24.0" Properties=species:S:1:pos:R:3:forces:R:3 stress="-0.012060992370710795 6.633475898988726e-05 -0.0 6.633475898988726e-05 -0.011984396570717955 -0.0 -0.0 -0.0 0.0029603165708608" free_energy=-150.63490926 energy=-150.63390494 pbc="T T T"
C        0.00000000       0.00000000      13.84584000      -0.23402000      -0.13367400       0.00605300
C        3.69000000       2.13042000      13.83510000      -0.00124600       0.00071900       0.01925800
C        2.46000000       0.00000000      13.84584000       0.23151700      -0.13366700       0.00603700
C        1.23000000       2.13042000      13.84584000      -0.00124500       0.26950400       0.00605300
C       -0.00005000       1.42031000      13.84591000      -0.23149100       0.13365100       0.00396600
C       -1.23005000       3.55073000      13.84590000       0.00125700      -0.26947100       0.00395500
C        2.45995000       1.42031000      13.84590000       0.23399700       0.13364800       0.00395500
C        1.22995000       3.55073000      13.83502000       0.00123000      -0.00071000       0.01788400
C        0.00000000       0.00000000      10.15416000      -0.23402000      -0.13367400      -0.00605300
C        3.69000000       2.13042000      10.16490000      -0.00124600       0.00071900      -0.01925800
C        2.46000000       0.00000000      10.15416000       0.23151700      -0.13366700      -0.00603700
C        1.23000000       2.13042000      10.15416000      -0.00124500       0.26950400      -0.00605300
C       -0.00005000       1.42031000      10.15409000      -0.23149100       0.13365100      -0.00396600
C       -1.23005000       3.55073000      10.15410000       0.00125700      -0.26947100      -0.00395500
C        2.45995000       1.42031000      10.15410000       0.23399700       0.13364800      -0.00395500
C        1.22995000       3.55073000      10.16498000       0.00123000      -0.00071000      -0.01788400
Li       1.22994000       0.71016000      12.00000000       0.00000100      -0.00000100       0.00000000
17
Lattice="4.920000076 0.0 0.0 -2.460000038 4.260845053 0.0 0.0 0.0 24.0" Properties=species:S:1:pos:R:3:forces:R:3 stress="-0.01206078640090964 6.638469106289433e-05 -0.0 6.638469106289433e-05 -0.011984128185825543 -0.0 -0.0 -0.0 0.0027538599319948333" free_energy=-150.63451152 energy=-150.63353698 pbc="T T T"
C        0.00000000       0.00000000      13.84190000      -0.23527500      -0.13438100       0.00375700
C        3.69000000       2.13042000      13.83183000      -0.00125800       0.00072600       0.01674200