17
Lattice="4.920000076 0.0 0.0 -2.460000038 4.260845053 0.0 0.0 0.0 24.0" Properties=species:S:1:pos:R:3:forces:R:3 stress="-0.012096381727454553 5.628592929721522e-05 -0.0 5.628592929721522e-05 -0.01203138889292673 -0.0 -0.0 -0.0 0.005821873742822749" free_energy=-150.62746075 energy=-150.62685317 pbc="T T T"
C        0.00000000       0.00000000      13.95000000      -0.20596600      -0.11554800       0.01095200
C        3.69000000       2.13042000      13.95000000      -0.00291300       0.00168200      -0.06572100
C        2.46000000       0.00000000      13.95000000       0.20013200      -0.11554600       0.01093800
C        1.23000000       2.13042000      13.95000000      -0.00291500       0.23614600       0.01095200
C       -0.00005000       1.42031000      13.95000000      -0.19985800       0.11538800       0.00574000
C       -1.23005000       3.55073000      13.95000000       0.00308000      -0.23623700       0.00587700
C        2.45995000       1.42031000      13.95000000       0.20612700       0.11545200       0.00587700
C        1.22995000       3.55073000      13.95000000       0.00306900      -0.00177200      -0.07079200
C        0.00000000       0.00000000      10.05000000      -0.20596600      -0.11554800      -0.01095200
C        3.69000000       2.13042000      10.05000000      -0.00291300       0.00168200       0.06572100
C        2.46000000       0.00000000      10.05000000       0.20013200      -0.11554600      -0.01093800
C        1.23000000       2.13042000      10.05000000      -0.00291500       0.23614600      -0.01095200
C       -0.00005000       1.42031000      10.05000000      -0.19985800       0.11538800      -0.00574000
C       -1.23005000       3.55073000      10.05000000       0.00308000      -0.23623700      -0.00587700
C        2.45995000       1.42031000      10.05000000       0.20612700       0.11545200      -0.00587700
C        1.22995000       3.55073000      10.05000000       0.00306900      -0.00177200       0.07079200
Li       1.22995000       0.71016000      12.00000000      -0.00151100       0.00087200       0.00000000
17
Lattice="4.920000076 0.0 0.0 -2.460000038 4.260845053 0.0 0.0 0.0 24.0" Properties=species:S:1:pos:R:3:forces:R:3 stress="-0.01201082936186607 6.832580040104402e-05 -0.0 6.832580040104402e-05 -0.011931936686514905 -0.0 -0.0 -0.0 0.006101911532773753" free_energy=-150.62803596 energy=-150.6274279 pbc="T T T"
C        0.00000000       0.00000000      13.95053000      -0.20421200      -0.11629800      -0.01854800
C        3.69000000       2.13042000      13.94683000      -0.00143400       0.00082800      -0.01836700
C        2.46000000       0.00000000      13.95053000       0.20139100      -0.11627300      -0.01853000
C        1.23000000       2.13042000      13.95053000      -0.00138900       0.23500200      -0.01854800
C       -0.00005000       1.42031000      13.95028000      -0.20141300       0.11628600      -0.01263800
C       -1.23005000       3.55073000      13.95028000       0.00143100      -0.23501200      -0.01274100
C        2.45995000       1.42031000      13.95028000       0.20424200       0.11626700      -0.01274100
C        1.22995000       3.55073000      13.94658000       0.00136800      -0.00079000      -0.01227000
C        0.00000000       0.00000000      10.04947000      -0.20421200      -0.11629800       0.01854800
C        3.69000000       2.13042000      10.05317000      -0.00143400       0.00082800       0.01836700
C        2.46000000       0.00000000      10.04947000       0.20139100      -0.11627300       0.01853000
C        1.23000000       2.13042000      10.04947000      -0.00138900       0.23500200       0.01854800
C       -0.00005000       1.42031000      10.04972000      -0.20141300       0.11628600       0.01263800
C       -1.23005000       3.55073000      10.04972000       0.00143100      -0.23501200       0.01274100
C        2.45995000       1.42031000      10.04972000       0.20424200       0.11626700       0.01274100
C        1.22995000       3.55073000      10.05342000       0.00136800      -0.00079000       0.01227000
Li       1.22988000       0.71020000      12.00000000       0.00003200      -0.00001900      -0.00000000
17
Lattice="4.920000076 0.0 0.0 -2.460000038 4.260845053 0.0 0.0 0.0 24.0" Properties=species:S:1:pos:R:3:forces:R:3 stress="-0.012136932812245415 6.831955889191815e-05 -0.0 6.831955889191815e-05 -0.01205804637840338 -0.0 -0.0 -0.0 0.0058713439441545" free_energy=-150.62817399 energy=-150.62756471 pbc="T T T"
C        0.00000000       0.00000000      13.94971000      -0.20450400      -0.11646300      -0.00398300
C        3.69000000       2.13042000      13.94602000      -0.00143000       0.00082600      -0.01618900
C        2.46000000       0.00000000      13.94971000       0.20168400      -0.11644200      -0.00398800
C        1.23000000       2.13042000      13.94971000      -0.00139200       0.23533700      -0.00398300
C       -0.00005000       1.42031000      13.94972000      -0.20168500       0.11644300      -0.00555100
C       -1.23005000       3.55073000      13.94972000       0.00143000      -0.23532700      -0.00560300
C        2.45995000       1.42031000      13.94972000       0.20451500       0.11642500      -0.00560300
C        1.22995000       3.55073000      13.94604000       0.00136900      -0.00079000      -0.01781100
C        0.00000000       0.00000000      10.05029000      -0.20450400      -0.11646300       0.00398300
C        3.69000000       2.13042000      10.05398000      -0.00143000       0.00082600       0.01618900
C        2.46000000       0.00000000      10.05029000       0.20168400      -0.11644200       0.00398800
C        1.23000000       2.13042000      10.05029000      -0.00139200       0.23533700       0.00398300
C       -0.00005000       1.42031000      10.05028000      -0.20168500       0.11644300       0.00555100
C       -1.23005000       3.55073000      10.05028000       0.00143000      -0.23532700       0.00560300
C        2.45995000       1.42031000      10.05028000       0.20451500       0.11642500       0.00560300
C        1.22995000       3.55073000      10.05396000       0.00136900      -0.00079000       0.01781100
Li       1.22988000       0.71020000      12.00000000       0.00003100      -0.00001800       0.00000000
17
Lattice="4.920000076 0.0 0.0 -2.460000038 4.260845053 0.0 0.0 0.0 24.0" Properties=species:S:1:pos:R:3:forces:R:3 stress="-0.012112135296488281 6.830707587366638e-05 -0.0 6.830707587366638e-05 -0.012033261345664494 -0.0 -0.0 -0.0 0.005932198658131861" free_energy=-150.62827061 energy=-150.62765965 pbc="T T T"
C        0.00000000       0.00000000      13.94908000      -0.20466900      -0.11655700      -0.01093000
C        3.69000000       2.13042000      13.94417000      -0.00142500       0.00082300       0.00573700
C        2.46000000       0.00000000      13.94908000       0.20185000      -0.11653800      -0.01094600
C        1.23000000       2.13042000      13.94908000      -0.00139400       0.23552700      -0.01093000
C       -0.00005000       1.42031000      13.94901000      -0.20185500       0.11654100      -0.01003900
C       -1.23005000       3.55073000      13.94900000       0.00142900      -0.23552100      -0.01003200
C        2.45995000       1.42031000      13.94900000       0.20468100       0.11652300      -0.01003200
C        1.22995000       3.55073000      13.94411000       0.00136900      -0.00079000       0.00672800
C        0.00000000       0.00000000      10.05092000      -0.20466900      -0.11655700       0.01093000
C        3.69000000       2.13042000      10.05583000      -0.00142500       0.00082300      -0.00573700
C        2.46000000       0.00000000      10.05092000       0.20185000      -0.11653800       0.01094600
C        1.23000000       2.13042000      10.05092000      -0.00139400       0.23552700       0.01093000
C       -0.00005000       1.42031000      10.05099000      -0.20185500       0.11654100       0.01003900
C       -1.23005000       3.55073000      10.05100000       0.00142900      -0.23552100       0.01003200
C        2.45995000       1.42031000      10.05100000       0.20468100       0.11652300       0.01003200
C        1.22995000       3.55073000      10.05589000       0.00136900      -0.00079000      -0.00672800
Li       1.22988000       0.71019000      12.00000000       0.00002800      -0.00001600       0.00000000
17
Lattice="4.920000076 0.0 0.0 -2.460000038 4.260845053 0.0 0.0 0.0 24.0" Properties=species:S:1:pos:R:3:forces:R:3 stress="-0.012111492421048316 6.83008343645405e-05 -0.0 6.83008343645405e-05 -0.012032618470224528 -0.0 -0.0 -0.0 0.00591922256065915" free_energy=-150.62832027 energy=-150.62770862 pbc="T T T"
C        0.00000000       0.00000000      13.94869000      -0.20476500      -0.11661200      -0.01084200
C        3.69000000       2.13042000      13.94411000      -0.00142400       0.00082200       0.00091600
C        2.46000000       0.00000000      13.94868000       0.20194600      -0.11659400      -0.01085200
C        1.23000000       2.13042000      13.94869000      -0.00139300       0.23563800      -0.01084200
C       -0.00005000       1.42031000      13.94857000      -0.20195500       0.11659900      -0.00888500
C       -1.23005000       3.55073000      13.94857000       0.00142800      -0.23563500      -0.00887400
C        2.45995000       1.42031000      13.94857000       0.20478000       0.11658100      -0.00887400
C        1.22995000       3.55073000      13.94401000       0.00137000      -0.00079100       0.00301600
C        0.00000000       0.00000000      10.05131000      -0.20476500      -0.11661200       0.01084200
C        3.69000000       2.13042000      10.05589000      -0.00142400       0.00082200      -0.00091600
C        2.46000000       0.00000000      10.05132000       0.20194600      -0.11659400       0.01085200
C        1.23000000       2.13042000      10.05131000      -0.00139300       0.23563800       0.01084200
C       -0.00005000       1.42031000      10.05143000      -0.20195500       0.11659900       0.00888500
C       -1.23005000       3.55073000      10.05143000       0.00142800      -0.23563500       0.00887400
C        2.45995000       1.42031000      10.05143000       0.20478000       0.11658100       0.00887400
C        1.22995000       3.55073000      10.05599000       0.00137000      -0.00079100      -0.00301600
Li       1.22988000       0.71019000      12.00000000       0.00002700      -0.00001600       0.00000000
17
Lattice="4.920000076 0.0 0.0 -2.460000038 4.260845053 0.0 0.0 0.0 24.0" Properties=species:S:1:pos:R:3:forces:R:3 stress="-0.012012252425946772 6.832580040104402e-05 -0.0 6.832580040104402e-05 -0.011933359750595608 -0.0 -0.0 -0.0 0.006110456158767087" free_energy=-150.6279726 energy=-150.62736483 pbc="T T T"
C        0.00000000       0.00000000      13.95088000      -0.20414100      -0.11625300      -0.02004900
C        3.69000000       2.13042000      13.94627000      -0.00143200       0.00082700      -0.00683700
C        2.46000000       0.00000000      13.95088000       0.20132000      -0.11623200      -0.02007100
C        1.23000000       2.13042000      13.95088000      -0.00139200       0.23491800      -0.02004900
C       -0.00005000       1.42031000      13.95076000      -0.20132900       0.11623800      -0.01799800
C       -1.23005000       3.55073000      13.95076000       0.00143200      -0.23491700      -0.01803600
C        2.45995000       1.42031000      13.95076000       0.20416000       0.11621800      -0.01803600
C        1.22995000       3.55073000      13.94616000       0.00136700      -0.00078900      -0.00462400
C        0.00000000       0.00000000      10.04912000      -0.20414100      -0.11625300       0.02004900
C        3.69000000       2.13042000      10.05373000      -0.00143200       0.00082700       0.00683700
C        2.46000000       0.00000000      10.04912000       0.20132000      -0.11623200       0.02007100
C        1.23000000       2.13042000      10.04912000      -0.00139200       0.23491800       0.02004900
C       -0.00005000       1.42031000      10.04924000      -0.20132900       0.11623800       0.01799800
C       -1.23005000       3.55073000      10.04924000       0.00143200      -0.23491700       0.01803600
C        2.45995000       1.42031000      10.04924000       0.20416000       0.11621800       0.01803600
C        1.22995000       3.55073000      10.05384000       0.00136700      -0.00078900       0.00462400
Li       1.22988000       0.71020000      12.00000000       0.00003200      -0.00001900      -0.00000000
17
Lattice="4.920000076 0.0 0.0 -2.460000038 4.260845053 0.0 0.0 0.0 24.0" Properties=species:S:1:pos:R:3:forces:R:3 stress="-0.012095102218083745 6.827586832803696e-05 -0.0 6.827586832803696e-05 -0.012016259474805589 -0.0 -0.0 -0.0 0.006163090805225661" free_energy=-150.62853083 energy=-150.62791349 pbc="T T T"
C        0.00000000       0.00000000      13.94581000      -0.20543200      -0.11699700       0.00322700
C        3.69000000       2.13042000      13.94194000      -0.00141600       0.00081800      -0.00966200
C        2.46000000       0.00000000      13.94581000       0.20261800      -0.11698200       0.00324400
C        1.23000000       2.13042000      13.94581000      -0.00139300       0.23640800       0.00322700
C       -0.00005000       1.42031000      13.94582000      -0.20261500       0.11698000       0.00174100
C       -1.23005000       3.55073000      13.94581000       0.00142200      -0.23639500       0.00177600
C        2.45995000       1.42031000      13.94581000       0.20543500       0.11696600       0.00177600
C        1.22995000       3.55073000      13.94199000       0.00137200      -0.00079200      -0.01129200
C        0.00000000       0.00000000      10.05419000      -0.20543200      -0.11699700      -0.00322700
C        3.69000000       2.13042000      10.05806000      -0.00141600       0.00081800       0.00966200
C        2.46000000       0.00000000      10.05419000       0.20261800      -0.11698200      -0.00324400
C        1.23000000       2.13042000      10.05419000      -0.00139300       0.23640800      -0.00322700
C       -0.00005000       1.42031000      10.05418000      -0.20261500       0.11698000      -0.00174100
C       -1.23005000       3.55073000      10.05419000       0.00142200      -0.23639500      -0.00177600
C        2.45995000       1.42031000      10.05419000       0.20543500       0.11696600      -0.00177600
C        1.22995000       3.55073000      10.05801000       0.00137200      -0.00079200       0.01129200
Li       1.22990000       0.71019000      12.00000000       0.00002000      -0.00001200       0.00000000
17
Lattice="4.920000076 0.0 0.0 -2.460000038 4.260845053 0.0 0.0 0.0 24.0" Properties=species:S:1:pos:R:3:forces:R:3 stress="-0.012094758935081822 6.828210983716284e-05 -0.0 6.828210983716284e-05 -0.01201590995029454 -0.0 -0.0 -0.0 0.006175654963096064" free_energy=-150.62853742 energy=-150.62792143 pbc="T T T"
C        0.00000000       0.00000000      13.94657000      -0.20524300      -0.11688800       0.00044000
C        3.69000000       2.13042000      13.94215000      -0.00141800       0.00081900      -0.00422900
C        2.46000000       0.00000000      13.94656000       0.20242800      -0.11687200       0.00045100
C        1.23000000       2.13042000      13.94657000      -0.00139300       0.23619000       0.00044000
C       -0.00005000       1.42031000      13.94651000      -0.20243100       0.11687400       0.00081000
C       -1.23005000       3.55073000      13.94651000       0.00142300      -0.23618200       0.00082000
C        2.45995000       1.42031000      13.94651000       0.20525200       0.11685900       0.00082000
C        1.22995000       3.55073000      13.94212000       0.00137200      -0.00079200      -0.00385500
C        0.00000000       0.00000000      10.05343000      -0.20524300      -0.11688800      -0.00044000
C        3.69000000       2.13042000      10.05785000      -0.00141800       0.00081900       0.00422900
C        2.46000000       0.00000000      10.05344000       0.20242800      -0.11687200      -0.00045100
C        1.23000000       2.13042000      10.05343000      -0.00139300       0.23619000      -0.00044000
C       -0.00005000       1.42031000      10.05349000      -0.20243100       0.11687400      -0.00081000
C       -1.23005000       3.55073000      10.05349000       0.00142300      -0.23618200      -0.00082000
C        2.45995000       1.42031000      10.05349000       0.20525200       0.11685900      -0.00082000
C        1.22995000       3.55073000      10.05788000       0.00137200      -0.00079200       0.00385500
Li       1.22989000       0.71019000      12.00000000       0.00002200      -0.00001300      -0.00000000
