17
Lattice="4.920000076 0.0 0.0 -2.460000038 4.260845053 0.0 0.0 0.0 24.0" Properties=species:S:1:pos:R:3:forces:R:3 stress="-0.012059918831141143 6.724601932226623e-05 -0.0 6.724601932226623e-05 -0.011982268216106028 -0.0 -0.0 -0.0 0.005389218571725647" free_energy=-150.62397458 energy=-150.62309238 pbc="T T T"
C        0.00000000       0.00000000      13.90000000      -0.21709800      -0.12385000       0.02179900
C        3.69000000       2.13042000      13.90000000      -0.00128900       0.00074400      -0.08752700
C        2.46000000       0.00000000      13.90000000       0.21451000      -0.12384700       0.02177000
C        1.23000000       2.13042000      13.90000000      -0.00129200       0.24993700       0.02179900
C       -0.00005000       1.42031000      13.90000000      -0.21448500       0.12383300       0.02276000
C       -1.23005000       3.55073000      13.90000000       0.00129900      -0.24991400       0.02275700
C        2.45995000       1.42031000      13.90000000       0.21708200       0.12383200       0.02275700
C        1.22995000       3.55073000      13.90000000       0.00127900      -0.00073900      -0.08658300
C        0.00000000       0.00000000      10.10000000      -0.21709800      -0.12385000      -0.02179900
C        3.69000000       2.13042000      10.10000000      -0.00128900       0.00074400       0.08752700
C        2.46000000       0.00000000      10.10000000       0.21451000      -0.12384700      -0.02177000
C        1.23000000       2.13042000      10.10000000      -0.00129200       0.24993700      -0.02179900
C       -0.00005000       1.42031000      10.10000000      -0.21448500       0.12383300      -0.02276000
C       -1.23005000       3.55073000      10.10000000       0.00129900      -0.24991400      -0.02275700
C        2.45995000       1.42031000      10.10000000       0.21708200       0.12383200      -0.02275700
C        1.22995000       3.55073000      10.10000000       0.00127900      -0.00073900       0.08658300
Li       1.22995000       0.71016000      12.00000000      -0.00001200       0.00000700       0.00000000
17
Lattice="4.920000076 0.0 0.0 -2.460000038 4.260845053 0.0 0.0 0.0 24.0" Properties=species:S:1:pos:R:3:forces:R:3 stress="-0.012072264536192139 6.72522608313921e-05 -0.0 6.72522608313921e-05 -0.0119946076796479 -0.0 -0.0 -0.0 0.005426155822732624" free_energy=-150.62515245 energy=-150.62427179 pbc="T T T"
C        0.00000000       0.00000000      13.90105000      -0.21678600      -0.12366900       0.00294300
C        3.69000000       2.13042000      13.89578000      -0.00129000       0.00074500      -0.03266800
C        2.46000000       0.00000000      13.90105000       0.21419800      -0.12366700       0.00300200
C        1.23000000       2.13042000      13.90105000      -0.00129300       0.24957700       0.00294300
C       -0.00005000       1.42031000      13.90110000      -0.21417000       0.12365100       0.00257500
C       -1.23005000       3.55073000      13.90110000       0.00130000      -0.24955200       0.00256900
C        2.45995000       1.42031000      13.90110000       0.21676800       0.12365000       0.00256900
C        1.22995000       3.55073000      13.89582000       0.00127900      -0.00073800      -0.03304400
C        0.00000000       0.00000000      10.09895000      -0.21678600      -0.12366900      -0.00294300
C        3.69000000       2.13042000      10.10422000      -0.00129000       0.00074500       0.03266800
C        2.46000000       0.00000000      10.09895000       0.21419800      -0.12366700      -0.00300200
C        1.23000000       2.13042000      10.09895000      -0.00129300       0.24957700      -0.00294300
C       -0.00005000       1.42031000      10.09890000      -0.21417000       0.12365100      -0.00257500
C       -1.23005000       3.55073000      10.09890000       0.00130000      -0.24955200      -0.00256900
C        2.45995000       1.42031000      10.09890000       0.21676800       0.12365000      -0.00256900
C        1.22995000       3.55073000      10.10418000       0.00127900      -0.00073800       0.03304400
Li       1.22995000       0.71016000      12.00000000      -0.00001200       0.00000700      -0.00000000
17
Lattice="4.920000076 0.0 0.0 -2.460000038 4.260845053 0.0 0.0 0.0 24.0" Properties=species:S:1:pos:R:3:forces:R:3 stress="-0.012075915819030782 6.723353630401446e-05 -0.0 6.723353630401446e-05 -0.011998283928523043 -0.0 -0.0 -0.0 0.005435099905310016" free_energy=-150.62533929 energy=-150.62445654 pbc="T T T"
C        0.00000000       0.00000000      13.90126000      -0.21686600      -0.12371500      -0.00723200
C        3.69000000       2.13042000      13.89345000      -0.00128800       0.00074400      -0.00792200
C        2.46000000       0.00000000      13.90126000       0.21428000      -0.12371400      -0.00723600
C        1.23000000       2.13042000      13.90126000      -0.00129300       0.24966800      -0.00723200
C       -0.00005000       1.42031000      13.90128000      -0.21425700       0.12370100      -0.00682000
C       -1.23005000       3.55073000      13.90128000       0.00130000      -0.24965000      -0.00684700
C        2.45995000       1.42031000      13.90128000       0.21685300       0.12369900      -0.00684700
C        1.22995000       3.55073000      13.89347000       0.00127500      -0.00073600      -0.00727300
C        0.00000000       0.00000000      10.09874000      -0.21686600      -0.12371500       0.00723200
C        3.69000000       2.13042000      10.10655000      -0.00128800       0.00074400       0.00792200
C        2.46000000       0.00000000      10.09874000       0.21428000      -0.12371400       0.00723600
C        1.23000000       2.13042000      10.09874000      -0.00129300       0.24966800       0.00723200
C       -0.00005000       1.42031000      10.09872000      -0.21425700       0.12370100       0.00682000
C       -1.23005000       3.55073000      10.09872000       0.00130000      -0.24965000       0.00684700
C        2.45995000       1.42031000      10.09872000       0.21685300       0.12369900       0.00684700
C        1.22995000       3.55073000      10.10653000       0.00127500      -0.00073600       0.00727300
Li       1.22995000       0.71016000      12.00000000      -0.00001000       0.00000600       0.00000000
