17
Lattice="4.920000076 0.0 0.0 -2.460000038 4.260845053 0.0 0.0 0.0 24.0" Properties=species:S:1:pos:R:3:forces:R:3 stress="-0.011953370028853189 5.471931050661853e-05 -0.0 5.471931050661853e-05 -0.011890187231971872 -0.0 -0.0 -0.0 -0.007098948925069723" free_energy=-150.30754371 energy=-150.30612334 pbc="T T T"
C        0.00000000       0.00000000      13.65000000      -0.33279200      -0.18926900       0.27726300
C        3.69000000       2.13042000      13.65000000      -0.00264700       0.00152800      -0.06546000
C        2.46000000       0.00000000      13.65000000       0.32760200      -0.18914100       0.27709900
C        1.23000000       2.13042000      13.65000000      -0.00248500       0.38284100       0.27726300
C       -0.00005000       1.42031000      13.65000000      -0.32740200       0.18902600       0.28220500
C       -1.23005000       3.55073000      13.65000000       0.00268300      -0.38292500       0.28232600
C        2.45995000       1.42031000      13.65000000       0.33296400       0.18913900       0.28232600
C        1.22995000       3.55073000      13.65000000       0.00281300      -0.00162400      -0.06036200
C        0.00000000       0.00000000      10.35000000      -0.33279200      -0.18926900      -0.27726300
C        3.69000000       2.13042000      10.35000000      -0.00264700       0.00152800       0.06546000
C        2.46000000       0.00000000      10.35000000       0.32760200      -0.18914100      -0.27709900
C        1.23000000       2.13042000      10.35000000      -0.00248500       0.38284100      -0.27726300
C       -0.00005000       1.42031000      10.35000000      -0.32740200       0.18902600      -0.28220500
C       -1.23005000       3.55073000      10.35000000       0.00268300      -0.38292500      -0.28232600
C        2.45995000       1.42031000      10.35000000       0.33296400       0.18913900      -0.28232600
C        1.22995000       3.55073000      10.35000000       0.00281300      -0.00162400       0.06036200
Li       1.22995000       0.71016000      12.00000000      -0.00147300       0.00085000      -0.00000000
17
Lattice="4.920000076 0.0 0.0 -2.460000038 4.260845053 0.0 0.0 0.0 24.0" Properties=species:S:1:pos:R:3:forces:R:3 stress="-0.011526232351823368 6.774534005233688e-05 -0.0 6.774534005233688e-05 -0.011448007517948671 -0.0 -0.0 -0.0 -0.005436785112774003" free_energy=-150.34337854 energy=-150.3423535 pbc="T T T"
C        0.00000000       0.00000000      13.66338000      -0.32178300      -0.18449500       0.17274700
C        3.69000000       2.13042000      13.64684000      -0.00130900       0.00075600       0.14426300
C        2.46000000       0.00000000      13.66337000       0.31928100      -0.18433700       0.17271100
C        1.23000000       2.13042000      13.66338000      -0.00111400       0.37092000       0.17274700
C       -0.00005000       1.42031000      13.66361000      -0.31924400       0.18431600       0.16671900
C       -1.23005000       3.55073000      13.66362000       0.00116200      -0.37076200       0.16653600
C        2.45995000       1.42031000      13.66362000       0.32167000       0.18437400       0.16653600
C        1.22995000       3.55073000      13.64709000       0.00125000      -0.00072200       0.13824200
C        0.00000000       0.00000000      10.33662000      -0.32178300      -0.18449500      -0.17274700
C        3.69000000       2.13042000      10.35316000      -0.00130900       0.00075600      -0.14426300
C        2.46000000       0.00000000      10.33663000       0.31928100      -0.18433700      -0.17271100
C        1.23000000       2.13042000      10.33662000      -0.00111400       0.37092000      -0.17274700
C       -0.00005000       1.42031000      10.33639000      -0.31924400       0.18431600      -0.16671900
C       -1.23005000       3.55073000      10.33638000       0.00116200      -0.37076200      -0.16653600
C        2.45995000       1.42031000      10.33638000       0.32167000       0.18437400      -0.16653600
C        1.22995000       3.55073000      10.35291000       0.00125000      -0.00072200      -0.13824200
Li       1.22988000       0.71020000      12.00000000       0.00017400      -0.00010100      -0.00000000
17
Lattice="4.920000076 0.0 0.0 -2.460000038 4.260845053 0.0 0.0 0.0 24.0" Properties=species:S:1:pos:R:3:forces:R:3 stress="-0.01160176085375568 6.533611752974594e-05 -0.0 6.533611752974594e-05 -0.011526313491442005 -0.0 -0.0 -0.0 -0.004895321713085379" free_energy=-150.37093624 energy=-150.37010116 pbc="T T T"
C        0.00000000       0.00000000      13.67460000      -0.31554700      -0.18023900       0.15252000
C        3.69000000       2.13042000      13.65622000      -0.00185300       0.00107000       0.13716300
C        2.46000000       0.00000000      13.67459000       0.31193500      -0.18009600       0.15251300
C        1.23000000       2.13042000      13.67460000      -0.00168200       0.36339100       0.15252000
C       -0.00005000       1.42031000      13.67445000      -0.31297800       0.18069800       0.15730900
C       -1.23005000       3.55073000      13.67444000       0.00282600      -0.36401500       0.16141000
C        2.45995000       1.42031000      13.67444000       0.31665900       0.17956000       0.16141000
C        1.22995000       3.55073000      13.65607000       0.00082400      -0.00047600       0.14265800
C        0.00000000       0.00000000      10.32540000      -0.31554700      -0.18023900      -0.15252000
C        3.69000000       2.13042000      10.34378000      -0.00185300       0.00107000      -0.13716300
C        2.46000000       0.00000000      10.32541000       0.31193500      -0.18009600      -0.15251300
C        1.23000000       2.13042000      10.32540000      -0.00168200       0.36339100      -0.15252000
C       -0.00005000       1.42031000      10.32555000      -0.31297800       0.18069800      -0.15730900
C       -1.23005000       3.55073000      10.32556000       0.00282600      -0.36401500      -0.16141000
C        2.45995000       1.42031000      10.32556000       0.31665900       0.17956000      -0.16141000
C        1.22995000       3.55073000      10.34393000       0.00082400      -0.00047600      -0.14265800
Li       1.22989000       0.71019000      12.00000000      -0.00036800       0.00021200       0.00000000
17
Lattice="4.920000076 0.0 0.0 -2.460000038 4.260845053 0.0 0.0 0.0 24.0" Properties=species:S:1:pos:R:3:forces:R:3 stress="-0.012773360773284354 7.095971725216677e-05 -0.0 7.095971725216677e-05 -0.012691428482988883 -0.0 -0.0 -0.0 -6.717736272188151e-05" free_energy=-150.56764577 energy=-150.56691969 pbc="T T T"
C        0.00000000       0.00000000      13.77273000      -0.26474300      -0.15159100       0.00536400
C        3.69000000       2.13042000      13.74282000      -0.00263900       0.00152400       0.34605700
C        2.46000000       0.00000000      13.77271000       0.26191900      -0.15121900       0.01176800
C        1.23000000       2.13042000      13.77273000      -0.00108900       0.30507000       0.00536400
C       -0.00005000       1.42031000      13.77396000      -0.26248200       0.15154400      -0.04402400
C       -1.23005000       3.55073000      13.77587000       0.00119600      -0.30573800      -0.06494100
C        2.45995000       1.42031000      13.77587000       0.26537500       0.15183300      -0.06494100
C        1.22995000       3.55073000      13.74439000       0.00155500      -0.00089800       0.28418800
C        0.00000000       0.00000000      10.22727000      -0.26474300      -0.15159100      -0.00536400
C        3.69000000       2.13042000      10.25718000      -0.00263900       0.00152400      -0.34605700
C        2.46000000       0.00000000      10.22729000       0.26191900      -0.15121900      -0.01176800
C        1.23000000       2.13042000      10.22727000      -0.00108900       0.30507000      -0.00536400
C       -0.00005000       1.42031000      10.22604000      -0.26248200       0.15154400       0.04402400
C       -1.23005000       3.55073000      10.22413000       0.00119600      -0.30573800       0.06494100
C        2.45995000       1.42031000      10.22413000       0.26537500       0.15183300       0.06494100
C        1.22995000       3.55073000      10.25561000       0.00155500      -0.00089800      -0.28418800
Li       1.22974000       0.71028000      12.00000000       0.00181400      -0.00104700      -0.00000000
17
Lattice="4.920000076 0.0 0.0 -2.460000038 4.260845053 0.0 0.0 0.0 24.0" Properties=species:S:1:pos:R:3:forces:R:3 stress="-0.011647767017522567 6.90810230052759e-05 -0.0 6.90810230052759e-05 -0.011568000530893779 -0.0 -0.0 -0.0 -0.0017966496094311253" free_energy=-150.4851363 energy=-150.48431475 pbc="T T T"
C        0.00000000       0.00000000      13.72321000      -0.28818300      -0.16512700       0.14138600
C        3.69000000       2.13042000      13.70664000      -0.00152700       0.00088200       0.14087200
C        2.46000000       0.00000000      13.72333000       0.28565200      -0.16492200       0.14150500
C        1.23000000       2.13042000      13.72321000      -0.00108700       0.33213700       0.14138600
C       -0.00005000       1.42031000      13.72273000      -0.28573400       0.16496800       0.15127100
C       -1.23005000       3.55073000      13.72324000       0.00111700      -0.33200400       0.14572500
C        2.45995000       1.42031000      13.72324000       0.28808200       0.16503500       0.14572500
C        1.22995000       3.55073000      13.70607000       0.00126800      -0.00073200       0.14984500
C        0.00000000       0.00000000      10.27679000      -0.28818300      -0.16512700      -0.14138600
C        3.69000000       2.13042000      10.29336000      -0.00152700       0.00088200      -0.14087200
C        2.46000000       0.00000000      10.27667000       0.28565200      -0.16492200      -0.14150500
C        1.23000000       2.13042000      10.27679000      -0.00108700       0.33213700      -0.14138600
C       -0.00005000       1.42031000      10.27727000      -0.28573400       0.16496800      -0.15127100
C       -1.23005000       3.55073000      10.27676000       0.00111700      -0.33200400      -0.14572500
C        2.45995000       1.42031000      10.27676000       0.28808200       0.16503500      -0.14572500
C        1.22995000       3.55073000      10.29393000       0.00126800      -0.00073200      -0.14984500
Li       1.22985000       0.71021000      12.00000000       0.00082300      -0.00047500       0.00000000
17
Lattice="4.920000076 0.0 0.0 -2.460000038 4.260845053 0.0 0.0 0.0 24.0" Properties=species:S:1:pos:R:3:forces:R:3 stress="-0.011830462231146296 6.828210983716284e-05 -0.0 6.828210983716284e-05 -0.011751613246359012 -0.0 -0.0 -0.0 -0.0011774357305613732" free_energy=-150.53886423 energy=-150.53798569 pbc="T T T"
C        0.00000000       0.00000000      13.74763000      -0.27532600      -0.15765400       0.10212700
C        3.69000000       2.13042000      13.73232000      -0.00150800       0.00087000       0.13427300
C        2.46000000       0.00000000      13.74783000       0.27278100      -0.15749000       0.10155200
C        1.23000000       2.13042000      13.74763000      -0.00113100       0.31726700       0.10212700
C       -0.00005000       1.42031000      13.74716000      -0.27284500       0.15752700       0.11439800
C       -1.23005000       3.55073000      13.74768000       0.00115600      -0.31715600       0.10922900
C        2.45995000       1.42031000      13.74768000       0.27524300       0.15757600       0.10922900
C        1.22995000       3.55073000      13.73166000       0.00123900      -0.00071500       0.14501500
C        0.00000000       0.00000000      10.25237000      -0.27532600      -0.15765400      -0.10212700
C        3.69000000       2.13042000      10.26768000      -0.00150800       0.00087000      -0.13427300
C        2.46000000       0.00000000      10.25217000       0.27278100      -0.15749000      -0.10155200
C        1.23000000       2.13042000      10.25237000      -0.00113100       0.31726700      -0.10212700
C       -0.00005000       1.42031000      10.25284000      -0.27284500       0.15752700      -0.11439800
C       -1.23005000       3.55073000      10.25232000       0.00115600      -0.31715600      -0.10922900
C        2.45995000       1.42031000      10.25232000       0.27524300       0.15757600      -0.10922900
C        1.22995000       3.55073000      10.26834000       0.00123900      -0.00071500      -0.14501500
Li       1.22987000       0.71020000      12.00000000       0.00078200      -0.00045200       0.00000000
17
Lattice="4.920000076 0.0 0.0 -2.460000038 4.260845053 0.0 0.0 0.0 24.0" Properties=species:S:1:pos:R:3:forces:R:3 stress="-0.013168978829228463 6.697763442985325e-05 -0.0 6.697763442985325e-05 -0.013091640289649644 -0.0 -0.0 -0.0 0.0015666250321058235" free_energy=-150.62063187 energy=-150.61987668 pbc="T T T"
C        0.00000000       0.00000000      13.81899000      -0.24322100      -0.13884900       0.08460300
C        3.69000000       2.13042000      13.81357000      -0.00145200       0.00083900      -0.00691600
C        2.46000000       0.00000000      13.81927000       0.24042000      -0.13880700       0.08263800
C        1.23000000       2.13042000      13.81899000      -0.00136300       0.28006000       0.08460300
C       -0.00005000       1.42031000      13.81947000      -0.24031900       0.13874800       0.07169800
C       -1.23005000       3.55073000      13.81980000       0.00137700      -0.27986000       0.06897100
C        2.45995000       1.42031000      13.81980000       0.24305500       0.13873700       0.06897100
C        1.22995000       3.55073000      13.81342000       0.00131400      -0.00075900      -0.01613400
C        0.00000000       0.00000000      10.18101000      -0.24322100      -0.13884900      -0.08460300
C        3.69000000       2.13042000      10.18643000      -0.00145200       0.00083900       0.00691600
C        2.46000000       0.00000000      10.18073000       0.24042000      -0.13880700      -0.08263800
C        1.23000000       2.13042000      10.18101000      -0.00136300       0.28006000      -0.08460300
C       -0.00005000       1.42031000      10.18053000      -0.24031900       0.13874800      -0.07169800
C       -1.23005000       3.55073000      10.18020000       0.00137700      -0.27986000      -0.06897100
C        2.45995000       1.42031000      10.18020000       0.24305500       0.13873700      -0.06897100
C        1.22995000       3.55073000      10.18658000       0.00131400      -0.00075900       0.01613400
Li       1.22994000       0.71016000      12.00000000       0.00038000      -0.00021900       0.00000000
17
Lattice="4.920000076 0.0 0.0 -2.460000038 4.260845053 0.0 0.0 0.0 24.0" Properties=species:S:1:pos:R:3:forces:R:3 stress="-0.012826257563126215 6.6509521245412e-05 -0.0 6.6509521245412e-05 -0.012749455793332221 -0.0 -0.0 -0.0 0.002466844134841092" free_energy=-150.63278854 energy=-150.631865 pbc="T T T"
C        0.00000000       0.00000000      13.83606000      -0.23707000      -0.13538300       0.00766000
C        3.69000000       2.13042000      13.82695000      -0.00132400       0.00076500       0.05172200
C        2.46000000       0.00000000      13.83625000       0.23448000      -0.13537700       0.00634200
C        1.23000000       2.13042000      13.83606000      -0.00129000       0.27300000       0.00766000
C       -0.00005000       1.42031000      13.83587000      -0.23447700       0.13537500       0.01381600
C       -1.23005000       3.55073000      13.83605000       0.00128800      -0.27298700       0.01243300
C        2.45995000       1.42031000      13.83605000       0.23705800       0.13537800       0.01243300
C        1.22995000       3.55073000      13.82627000       0.00124100      -0.00071700       0.06106000
C        0.00000000       0.00000000      10.16394000      -0.23707000      -0.13538300      -0.00766000
C        3.69000000       2.13042000      10.17305000      -0.00132400       0.00076500      -0.05172200
C        2.46000000       0.00000000      10.16375000       0.23448000      -0.13537700      -0.00634200
C        1.23000000       2.13042000      10.16394000      -0.00129000       0.27300000      -0.00766000
C       -0.00005000       1.42031000      10.16413000      -0.23447700       0.13537500      -0.01381600
C       -1.23005000       3.55073000      10.16395000       0.00128800      -0.27298700      -0.01243300
C        2.45995000       1.42031000      10.16395000       0.23705800       0.13537800      -0.01243300
C        1.22995000       3.55073000      10.17373000       0.00124100      -0.00071700      -0.06106000
Li       1.22997000       0.71015000      12.00000000       0.00019000      -0.00010900       0.00000000
17
Lattice="4.920000076 0.0 0.0 -2.460000038 4.260845053 0.0 0.0 0.0 24.0" Properties=species:S:1:pos:R:3:forces:R:3 stress="-0.012825421200903346 6.652824577278966e-05 -0.0 6.652824577278966e-05 -0.012748600706581974 -0.0 -0.0 -0.0 0.0024702457573146986" free_energy=-150.6328332 energy=-150.63191482 pbc="T T T"
C        0.00000000       0.00000000      13.83503000      -0.23731200      -0.13551800       0.01817300
C        3.69000000       2.13042000      13.82773000      -0.00130800       0.00075500       0.03517700
C        2.46000000       0.00000000      13.83515000       0.23471700      -0.13551400       0.01724800
C        1.23000000       2.13042000      13.83503000      -0.00129400       0.27327700       0.01817300
C       -0.00005000       1.42031000      13.83510000      -0.23468700       0.13549700       0.01607000
C       -1.23005000       3.55073000      13.83523000       0.00128800      -0.27323700       0.01512000
C        2.45995000       1.42031000      13.83523000       0.23727400       0.13550300       0.01512000
C        1.22995000       3.55073000      13.82747000       0.00126400      -0.00073000       0.03524100
C        0.00000000       0.00000000      10.16497000      -0.23731200      -0.13551800      -0.01817300
C        3.69000000       2.13042000      10.17227000      -0.00130800       0.00075500      -0.03517700
C        2.46000000       0.00000000      10.16485000       0.23471700      -0.13551400      -0.01724800
C        1.23000000       2.13042000      10.16497000      -0.00129400       0.27327700      -0.01817300
C       -0.00005000       1.42031000      10.16490000      -0.23468700       0.13549700      -0.01607000
C       -1.23005000       3.55073000      10.16477000       0.00128800      -0.27323700      -0.01512000
C        2.45995000       1.42031000      10.16477000       0.23727400       0.13550300      -0.01512000
C        1.22995000       3.55073000      10.17253000       0.00126400      -0.00073000      -0.03524100
Li       1.22997000       0.71014000      12.00000000       0.00011600      -0.00006700       0.00000000
17
Lattice="4.920000076 0.0 0.0 -2.460000038 4.260845053 0.0 0.0 0.0 24.0" Properties=species:S:1:pos:R:3:forces:R:3 stress="-0.012784645421783952 6.652200426366377e-05 -0.0 6.652200426366377e-05 -0.012707837410480831 -0.0 -0.0 -0.0 0.0025025830160958994" free_energy=-150.63312807 energy=-150.63220325 pbc="T T T"
C        0.00000000       0.00000000      13.83557000      -0.23708000      -0.13538400       0.02101300
C        3.69000000       2.13042000      13.82942000      -0.00128600       0.00074200       0.01296400
C        2.46000000       0.00000000      13.83563000       0.23449500      -0.13538600       0.02058500
C        1.23000000       2.13042000      13.83557000      -0.00129400       0.27300900       0.02101300
C       -0.00005000       1.42031000      13.83547000      -0.23449600       0.13538600       0.02349900
C       -1.23005000       3.55073000      13.83553000       0.00128300      -0.27301800       0.02307200
C        2.45995000       1.42031000      13.83553000       0.23708200       0.13539800       0.02307200
C        1.22995000       3.55073000      13.82914000       0.00127900      -0.00073800       0.02507400
C        0.00000000       0.00000000      10.16443000      -0.23708000      -0.13538400      -0.02101300
C        3.69000000       2.13042000      10.17058000      -0.00128600       0.00074200      -0.01296400
C        2.46000000       0.00000000      10.16437000       0.23449500      -0.13538600      -0.02058500
C        1.23000000       2.13042000      10.16443000      -0.00129400       0.27300900      -0.02101300
C       -0.00005000       1.42031000      10.16453000      -0.23449600       0.13538600      -0.02349900
C       -1.23005000       3.55073000      10.16447000       0.00128300      -0.27301800      -0.02307200
C        2.45995000       1.42031000      10.16447000       0.23708200       0.13539800      -0.02307200
C        1.22995000       3.55073000      10.17086000       0.00127900      -0.00073800      -0.02507400
Li       1.22998000       0.71014000      12.00000000       0.00003100      -0.00001800      -0.00000000
17
Lattice="4.920000076 0.0 0.0 -2.460000038 4.260845053 0.0 0.0 0.0 24.0" Properties=species:S:1:pos:R:3:forces:R:3 stress="-0.012745074253925851 6.6509521245412e-05 -0.0 6.6509521245412e-05 -0.012668278725640985 -0.0 -0.0 -0.0 0.002530919467527409" free_energy=-150.63326873 energy=-150.63233988 pbc="T T T"
C        0.00000000       0.00000000      13.83598000      -0.23694000      -0.13530600       0.02256400
C        3.69000000       2.13042000      13.82968000      -0.00128200       0.00074000       0.01618300
C        2.46000000       0.00000000      13.83603000       0.23436100      -0.13530800       0.02219800
C        1.23000000       2.13042000      13.83598000      -0.00129100       0.27284900       0.02256400
C       -0.00005000       1.42031000      13.83592000      -0.23434800       0.13530100       0.02268300
C       -1.23005000       3.55073000      13.83597000       0.00128200      -0.27284400       0.02231500
C        2.45995000       1.42031000      13.83597000       0.23693000       0.13531200       0.02231500
C        1.22995000       3.55073000      13.82963000       0.00127600      -0.00073700       0.01630100
C        0.00000000       0.00000000      10.16402000      -0.23694000      -0.13530600      -0.02256400
C        3.69000000       2.13042000      10.17032000      -0.00128200       0.00074000      -0.01618300
C        2.46000000       0.00000000      10.16397000       0.23436100      -0.13530800      -0.02219800
C        1.23000000       2.13042000      10.16402000      -0.00129100       0.27284900      -0.02256400
C       -0.00005000       1.42031000      10.16408000      -0.23434800       0.13530100      -0.02268300
C       -1.23005000       3.55073000      10.16403000       0.00128200      -0.27284400      -0.02231500
C        2.45995000       1.42031000      10.16403000       0.23693000       0.13531200      -0.02231500
C        1.22995000       3.55073000      10.17037000       0.00127600      -0.00073700      -0.01630100
Li       1.22998000       0.71014000      12.00000000       0.00002200      -0.00001300      -0.00000000
17
Lattice="4.920000076 0.0 0.0 -2.460000038 4.260845053 0.0 0.0 0.0 24.0" Properties=species:S:1:pos:R:3:forces:R:3 stress="-0.012719552723110114 6.645958917240494e-05 -0.0 6.645958917240494e-05 -0.012642807126898253 -0.0 -0.0 -0.0 0.00258187514803112" free_energy=-150.63395321 energy=-150.63299894 pbc="T T T"
C        0.00000000       0.00000000      13.83904000      -0.23594300      -0.13474500       0.02046800
C        3.69000000       2.13042000      13.83176000      -0.00126400       0.00073000      -0.01840600
C        2.46000000       0.00000000      13.83907000       0.23339200      -0.13474900       0.02026700
C        1.23000000       2.13042000      13.83904000      -0.00127900       0.27170500       0.02046800
C       -0.00005000       1.42031000      13.83897000      -0.23338100       0.13474300       0.02343700
C       -1.23005000       3.55073000      13.83900000       0.00127000      -0.27170900       0.02323200
C        2.45995000       1.42031000      13.83900000       0.23594200       0.13475400       0.02323200
C        1.22995000       3.55073000      13.83128000       0.00126500      -0.00073100      -0.01258400
C        0.00000000       0.00000000      10.16096000      -0.23594300      -0.13474500      -0.02046800
C        3.69000000       2.13042000      10.16824000      -0.00126400       0.00073000       0.01840600
C        2.46000000       0.00000000      10.16093000       0.23339200      -0.13474900      -0.02026700
C        1.23000000       2.13042000      10.16096000      -0.00127900       0.27170500      -0.02046800
C       -0.00005000       1.42031000      10.16103000      -0.23338100       0.13474300      -0.02343700
C       -1.23005000       3.55073000      10.16100000       0.00127000      -0.27170900      -0.02323200
C        2.45995000       1.42031000      10.16100000       0.23594200       0.13475400      -0.02323200
C        1.22995000       3.55073000      10.16872000       0.00126500      -0.00073100       0.01258400
Li       1.22998000       0.71014000      12.00000000      -0.00000400       0.00000200      -0.00000000
17
Lattice="4.920000076 0.0 0.0 -2.460000038 4.260845053 0.0 0.0 0.0 24.0" Properties=species:S:1:pos:R:3:forces:R:3 stress="-0.012170562063415673 6.636596653551668e-05 -0.0 6.636596653551668e-05 -0.01209392881436808 -0.0 -0.0 -0.0 0.0027633969579391833" free_energy=-150.63352425 energy=-150.63255427 pbc="T T T"
C        0.00000000       0.00000000      13.84208000      -0.23555500      -0.13453600      -0.01240400
C        3.69000000       2.13042000      13.82896000      -0.00130300       0.00075300       0.10967300
C        2.46000000       0.00000000      13.84225000       0.23302600      -0.13453800      -0.01361900
C        1.23000000       2.13042000      13.84208000      -0.00126600       0.27126500      -0.01240400
C       -0.00005000       1.42031000      13.84239000      -0.23285600       0.13443900      -0.01196500
C       -1.23005000       3.55073000      13.84255000       0.00126500      -0.27108400      -0.01321100
C        2.45995000       1.42031000      13.84255000       0.23539800       0.13444600      -0.01321100
C        1.22995000       3.55073000      13.82729000       0.00121100      -0.00069900       0.12284500
C        0.00000000       0.00000000      10.15792000      -0.23555500      -0.13453600       0.01240400
C        3.69000000       2.13042000      10.17104000      -0.00130300       0.00075300      -0.10967300
C        2.46000000       0.00000000      10.15775000       0.23302600      -0.13453800       0.01361900
C        1.23000000       2.13042000      10.15792000      -0.00126600       0.27126500       0.01240400
C       -0.00005000       1.42031000      10.15761000      -0.23285600       0.13443900       0.01196500
C       -1.23005000       3.55073000      10.15745000       0.00126500      -0.27108400       0.01321100
C        2.45995000       1.42031000      10.15745000       0.23539800       0.13444600       0.01321100
C        1.22995000       3.55073000      10.17271000       0.00121100      -0.00069900      -0.12284500
Li       1.22997000       0.71015000      12.00000000       0.00016000      -0.00009200       0.00000000
17
Lattice="4.920000076 0.0 0.0 -2.460000038 4.260845053 0.0 0.0 0.0 24.0" Properties=species:S:1:pos:R:3:forces:R:3 stress="-0.012061285721639711 6.570436656817307e-05 -0.0 6.570436656817307e-05 -0.011985413936705474 -0.0 -0.0 -0.0 0.002968992268545778" free_energy=-150.63468537 energy=-150.63367404 pbc="T T T"
C        0.00000000       0.00000000      13.84750000      -0.23392300      -0.13343900      -0.00681800
C        3.69000000       2.13042000      13.83453000      -0.00138900       0.00080200       0.04688200
C        2.46000000       0.00000000      13.84754000       0.23113400      -0.13344500      -0.00704800
C        1.23000000       2.13042000      13.84750000      -0.00140000       0.26930300      -0.00681800
C       -0.00005000       1.42031000      13.84785000      -0.23126700       0.13352200      -0.00643900
C       -1.23005000       3.55073000      13.84787000       0.00109500      -0.26895600      -0.00666900
C        2.45995000       1.42031000      13.84787000       0.23347000       0.13352900      -0.00666900
C        1.22995000       3.55073000      13.83287000       0.00235300      -0.00135900       0.06880000
C        0.00000000       0.00000000      10.15250000      -0.23392300      -0.13343900       0.00681800
C        3.69000000       2.13042000      10.16547000      -0.00138900       0.00080200      -0.04688200
C        2.46000000       0.00000000      10.15246000       0.23113400      -0.13344500       0.00704800
C        1.23000000       2.13042000      10.15250000      -0.00140000       0.26930300       0.00681800
C       -0.00005000       1.42031000      10.15215000      -0.23126700       0.13352200       0.00643900
C       -1.23005000       3.55073000      10.15213000       0.00109500      -0.26895600       0.00666900
C        2.45995000       1.42031000      10.15213000       0.23347000       0.13352900       0.00666900
C        1.22995000       3.55073000      10.16713000       0.00235300      -0.00135900      -0.06880000
Li       1.22998000       0.71014000      12.00000000      -0.00014800       0.00008500       0.00000000
17
Lattice="4.920000076 0.0 0.0 -2.460000038 4.260845053 0.0 0.0 0.0 24.0" Properties=species:S:1:pos:R:3:forces:R:3 stress="-0.012189723496432136 6.629106842600608e-05 -0.0 6.629106842600608e-05 -0.012113177628512304 -0.0 -0.0 -0.0 0.002877260808922672" free_energy=-150.63535549 energy=-150.63432645 pbc="T T T"
C        0.00000000       0.00000000      13.85013000      -0.23275400      -0.13295000      -0.00648900
C        3.69000000       2.13042000      13.83764000      -0.00121200       0.00070000       0.04899300