17
Lattice="4.920000076 0.0 0.0 -2.460000038 4.260845053 0.0 0.0 0.0 24.0" Properties=species:S:1:pos:R:3:forces:R:3 stress="-0.011791377901000015 5.593016327703987e-05 2.7643643918536953e-05 5.593016327703987e-05 -0.011716685761290572 -2.6582587367136798e-05 2.7643643918536953e-05 -2.6582587367136798e-05 -0.01713782965219511" free_energy=-149.5195957 energy=-149.51871532 pbc="T T T"
C        0.00000000       0.00000000      13.65000000      -0.00152300      -0.34552900       0.17605900
C        3.69000000       2.13042000      13.65000000      -0.30121900       0.17354500       0.17619500
C        2.46000000       0.00000000      13.65000000      -0.00157500       0.00054600       0.06850800
C        1.23000000       2.13042000      13.65000000       0.29815600       0.17353300       0.17605600
C       -0.00005000       1.42031000      13.65000000       0.00398600      -0.00278400       4.22562300
C       -1.23005000       3.55073000      13.65000000       0.12034000       0.06434800       0.04182800
C        2.45995000       1.42031000      13.65000000       0.00402700      -0.13711300       0.04182600
C        1.22995000       3.55073000      13.65000000      -0.11222400       0.06431300       0.04182200
C        0.00000000       0.00000000      10.35000000      -0.00041100      -0.38071000      -0.22856400
C        3.69000000       2.13042000      10.35000000      -0.32958500       0.18945300      -0.22859200
C        2.46000000       0.00000000      10.35000000       0.00000800      -0.00136700       0.08352700
C        1.23000000       2.13042000      10.35000000       0.32919200       0.18869400      -0.22857900
C        1.23005000       0.71011000      10.35000000       0.32732300      -0.19003800      -0.23215100
C        0.00005000       2.84053000      10.35000000      -0.00549000       0.38660300      -0.23234100
C        3.69000000       0.71011000      10.35000000      -0.33183700      -0.18771900      -0.23231200
C        2.46000000       2.84053000      10.35000000       0.00106900       0.00455100       0.07296900
Li      -0.00005000       1.42031000      12.00000000      -0.00023700      -0.00032600      -3.72187500
17
Lattice="4.920000076 0.0 0.0 -2.460000038 4.260845053 0.0 0.0 0.0 24.0" Properties=species:S:1:pos:R:3:forces:R:3 stress="-0.012140640268666191 6.391929495817045e-05 -1.547894263219048e-06 6.391929495817045e-05 -0.012063769842271812 1.0298490057707376e-06 -1.547894263219048e-06 1.0298490057707376e-06 -0.006084310477038762" free_energy=-149.8828006 energy=-149.88214749 pbc="T T T"
C        0.00000000       0.00000000      13.65849000      -0.00147400      -0.07114100       0.89674600
C        3.69000000       2.13042000      13.65850000      -0.06371400       0.03684300       0.89655800
C        2.46000000       0.00000000      13.65331000      -0.00142000       0.00087300       0.26406200
C        1.23000000       2.13042000      13.65849000       0.06090400       0.03692100       0.89673000
C       -0.00005000       1.42031000      13.85386000       0.00144400      -0.00087300      -1.87385600
C       -1.23005000       3.55073000      13.65202000       0.09404500       0.05256000      -0.02799600
C        2.45995000       1.42031000      13.65202000       0.00146400      -0.10775600      -0.02799500
C        1.22995000       3.55073000      13.65202000      -0.09104900       0.05252300      -0.02877700
C        0.00000000       0.00000000      10.33897000      -0.00007800      -0.55298700      -0.33207000
C        3.69000000       2.13042000      10.33897000      -0.47870900       0.27601300      -0.33220600
C        2.46000000       0.00000000      10.35403000       0.00031200      -0.00110000      -0.09232600
C        1.23000000       2.13042000      10.33897000       0.47890500       0.27521600      -0.33202600
C        1.23005000       0.71011000      10.33880000       0.47775200      -0.27647300      -0.31541300
C        0.00005000       2.84053000      10.33879000      -0.00185300       0.55449500      -0.31552800
C        3.69000000       0.71011000      10.33879000      -0.47826600      -0.27602800      -0.31554500
C        2.46000000       2.84053000      10.35352000       0.00151200       0.00104600      -0.07937700
Li      -0.00006000       1.42029000      11.82045000       0.00022600      -0.00013100       1.11902000
17
Lattice="4.920000076 0.0 0.0 -2.460000038 4.260845053 0.0 0.0 0.0 24.0" Properties=species:S:1:pos:R:3:forces:R:3 stress="-0.012245497621981028 6.456217039813642e-05 -9.237433506307223e-07 6.456217039813642e-05 -0.012167790833363782 6.303924217142091e-07 -9.237433506307223e-07 6.303924217142091e-07 -0.007287479949726152" free_energy=-150.02887771 energy=-150.02817359 pbc="T T T"
C        0.00000000       0.00000000      13.68854000      -0.00135600      -0.24635700       0.15972100
C        3.69000000       2.13042000      13.68854000      -0.21538000       0.12440900       0.15984900
C        2.46000000       0.00000000      13.66215000      -0.00135000       0.00084100      -0.02496200
C        1.23000000       2.13042000      13.68854000       0.21270100       0.12442800       0.15971100
C       -0.00005000       1.42031000      13.79108000       0.00138000      -0.00083800      -0.08404700
C       -1.23005000       3.55073000      13.65108000       0.09862900       0.05529300       0.39914400
C        2.45995000       1.42031000      13.65108000       0.00138700      -0.11309600       0.39914100
C        1.22995000       3.55073000      13.65105000      -0.09576800       0.05524300       0.39886100
C        0.00000000       0.00000000      10.32785000      -0.00006200      -0.49603400      -0.24278400
C        3.69000000       2.13042000      10.32784000      -0.42932100       0.24748900      -0.24288900
C        2.46000000       0.00000000      10.35094000       0.00034300      -0.00112900      -0.18411400
C        1.23000000       2.13042000      10.32785000       0.42959600       0.24671500      -0.24277400
C        1.23005000       0.71011000      10.32823000       0.42931100      -0.24849600      -0.23944500
C        0.00005000       2.84053000      10.32822000      -0.00189700       0.49859900      -0.23944000
C        3.69000000       0.71011000      10.32822000      -0.42986000      -0.24802900      -0.23946700
C        2.46000000       2.84053000      10.35086000       0.00148300       0.00107000      -0.17735100
Li      -0.00005000       1.42029000      11.85794000       0.00016500      -0.00010800       0.24084500
17
Lattice="4.920000076 0.0 0.0 -2.460000038 4.260845053 0.0 0.0 0.0 24.0" Properties=species:S:1:pos:R:3:forces:R:3 stress="-0.012171897746368614 6.459337794376584e-05 -9.67433914511905e-07 6.459337794376584e-05 -0.012094178474733114 6.428754399659756e-07 -9.67433914511905e-07 6.428754399659756e-07 -0.006814223761765181" free_energy=-150.06186138 energy=-150.06111718 pbc="T T T"
C        0.00000000       0.00000000      13.69368000      -0.00133300      -0.24790500       0.24846800
C        3.69000000       2.13042000      13.69369000      -0.21668800       0.12516600       0.24862200
C        2.46000000       0.00000000      13.66080000      -0.00132700       0.00083200       0.21255800
C        1.23000000       2.13042000      13.69368000       0.21405200       0.12518200       0.24846100
C       -0.00005000       1.42031000      13.79028000       0.00135800      -0.00082600       0.01793400
C       -1.23005000       3.55073000      13.66702000       0.09932100       0.05570800       0.19141600
C        2.45995000       1.42031000      13.66702000       0.00137300      -0.11390400       0.19141300
C        1.22995000       3.55073000      13.66698000      -0.09650800       0.05567000       0.19128500
C        0.00000000       0.00000000      10.31863000      -0.00006200      -0.47816000      -0.20968600
C        3.69000000       2.13042000      10.31862000      -0.41383600       0.23855000      -0.20974000
C        2.46000000       0.00000000      10.34373000       0.00034300      -0.00112700      -0.17795000
C        1.23000000       2.13042000      10.31863000       0.41412200       0.23778300      -0.20968200
C        1.23005000       0.71011000      10.31912000       0.41364200      -0.23945100      -0.21338600
C        0.00005000       2.84053000      10.31911000      -0.00190200       0.48048600      -0.21335200
C        3.69000000       0.71011000      10.31911000      -0.41417800      -0.23897200      -0.21337200
C        2.46000000       2.84053000      10.34390000       0.00148500       0.00106300      -0.17816300
Li      -0.00005000       1.42029000      11.86601000       0.00013800      -0.00009400       0.07517300
17
Lattice="4.920000076 0.0 0.0 -2.460000038 4.260845053 0.0 0.0 0.0 24.0" Properties=species:S:1:pos:R:3:forces:R:3 stress="-0.012251258534904219 6.46058609620176e-05 -8.051546772389402e-07 6.46058609620176e-05 -0.012173514297232218 5.242867665741937e-07 -8.051546772389402e-07 5.242867665741937e-07 -0.0059192537682047795" free_energy=-150.1429256 energy=-150.14212018 pbc="T T T"
C        0.00000000       0.00000000      13.71972000      -0.00128900      -0.26465000       0.15524400
C        3.69000000       2.13042000      13.71974000      -0.23113100       0.13350600       0.15528700
C        2.46000000       0.00000000      13.68206000      -0.00127700       0.00080400       0.25732800
C        1.23000000       2.13042000      13.71972000       0.22857600       0.13351800       0.15524500
C       -0.00005000       1.42031000      13.79492000       0.00131100      -0.00079800       0.30178700
C       -1.23005000       3.55073000      13.69206000       0.09609900       0.05387600       0.21370000
C        2.45995000       1.42031000      13.69206000       0.00134400      -0.11020300       0.21369800
C        1.22995000       3.55073000      13.69200000      -0.09337200       0.05385500       0.21372200
C        0.00000000       0.00000000      10.29441000      -0.00005300      -0.44689300      -0.18296200
C        3.69000000       2.13042000      10.29439000      -0.38672100       0.22289100      -0.18291800
C        2.46000000       0.00000000      10.32306000       0.00035600      -0.00113800      -0.22886400
C        1.23000000       2.13042000      10.29441000       0.38705300       0.22213800      -0.18296200
C        1.23005000       0.71011000      10.29453000       0.38645700      -0.22375300      -0.17810700
C        0.00005000       2.84053000      10.29452000      -0.00192900       0.44909400      -0.17806200
C        3.69000000       0.71011000      10.29452000      -0.38699700      -0.22324900      -0.17806600
C        2.46000000       2.84053000      10.32328000       0.00148200       0.00107000      -0.22418800
Li      -0.00003000       1.42027000      11.87459000       0.00009000      -0.00006900      -0.12988000
17
Lattice="4.920000076 0.0 0.0 -2.460000038 4.260845053 0.0 0.0 0.0 24.0" Properties=species:S:1:pos:R:3:forces:R:3 stress="-0.012599878027130428 6.772661552495923e-05 8.29496562829885e-06 6.772661552495923e-05 -0.012521977751730279 -1.0105003274804995e-05 8.29496562829885e-06 -1.0105003274804995e-05 -0.009794413297682793" free_energy=-149.94255671 energy=-149.94185511 pbc="T T T"
C        0.00000000       0.00000000      13.66379000      -0.00099100      -0.27143200       0.18977400
C        3.69000000       2.13042000      13.66378000      -0.23637800       0.13632000       0.19006400
C        2.46000000       0.00000000      13.62072000      -0.00101000       0.00043700       0.34913500
C        1.23000000       2.13042000      13.66379000       0.23440900       0.13632600       0.18976800
C       -0.00005000       1.42031000      13.75535000       0.00177900      -0.00128100       0.40874900
C       -1.23005000       3.55073000      13.63158000       0.10186300       0.05650200       0.26798500
C        2.45995000       1.42031000      13.63158000       0.00177100      -0.11682500       0.26797800
C        1.22995000       3.55073000      13.63154000      -0.09821200       0.05644000       0.26785500
C        0.00000000       0.00000000      10.35028000       0.00030100      -0.50160200      -0.24438300
C        3.69000000       2.13042000      10.35027000      -0.43342200       0.24964400      -0.24447400
C        2.46000000       0.00000000      10.38011000       0.00071500      -0.00155500      -0.30672600
C        1.23000000       2.13042000      10.35028000       0.43442100       0.24886900      -0.24438400
C        1.23005000       0.71011000      10.35005000       0.43020400      -0.24923000      -0.22301400
C        0.00005000       2.84053000      10.35003000      -0.00469100       0.50422700      -0.22290300
C        3.69000000       0.71011000      10.35003000      -0.43315800      -0.24693900      -0.22295700
C        2.46000000       2.84053000      10.37953000       0.00185400       0.00064900      -0.27910600
Li      -0.00006000       1.42030000      11.87729000       0.00054500      -0.00054800      -0.14336100
17
Lattice="4.920000076 0.0 0.0 -2.460000038 4.260845053 0.0 0.0 0.0 24.0" Properties=species:S:1:pos:R:3:forces:R:3 stress="-0.012400318255848563 6.377574024827514e-05 -1.8724527377649773e-07 6.377574024827514e-05 -0.01232366628227359 2.3093583765768057e-07 -1.8724527377649773e-07 2.3093583765768057e-07 0.0022413134440864265" free_energy=-150.46988843 energy=-150.46862895 pbc="T T T"
C        0.00000000       0.00000000      13.90808000      -0.00102000      -0.26340300      -0.09927800
C        3.69000000       2.13042000      13.90815000      -0.22971400       0.13270700      -0.09960200
C        2.46000000       0.00000000      13.88414000      -0.00100600       0.00067000       0.16963000
C        1.23000000       2.13042000      13.90808000       0.22766100       0.13270000      -0.09925600
C       -0.00005000       1.42031000      13.92418000       0.00105100      -0.00067600       0.35763100
C       -1.23005000       3.55073000      13.89522000       0.07765200       0.04349300       0.03884100
C        2.45995000       1.42031000      13.89522000       0.00110600      -0.08908200       0.03884800
C        1.22995000       3.55073000      13.89513000      -0.07548200       0.04351700       0.03937400
C        0.00000000       0.00000000      10.10924000       0.00000200      -0.32150300       0.00821900
C        3.69000000       2.13042000      10.10924000      -0.27807000       0.16015800       0.00818600
C        2.46000000       0.00000000      10.13440000       0.00040700      -0.00114800      -0.18017100
C        1.23000000       2.13042000      10.10924000       0.27852900       0.15941000       0.00816100
C        1.23005000       0.71011000      10.10812000       0.27802300      -0.16116800       0.03257000
C        0.00005000       2.84053000      10.10814000      -0.00200700       0.32389200       0.03249000
C        3.69000000       0.71011000      10.10813000      -0.27861400      -0.16060800       0.03252000
C        2.46000000       2.84053000      10.13381000       0.00144700       0.00108300      -0.15555800
Li       0.00001000       1.42027000      11.86149000       0.00003600      -0.00004200      -0.13260300
17
Lattice="4.920000076 0.0 0.0 -2.460000038 4.260845053 0.0 0.0 0.0 24.0" Properties=species:S:1:pos:R:3:forces:R:3 stress="-0.012448864713829683 6.377574024827514e-05 -2.371773467835638e-07 6.377574024827514e-05 -0.012372175291199956 2.746264015388634e-07 -2.371773467835638e-07 2.746264015388634e-07 0.0025425598820471816" free_energy=-150.47724308 energy=-150.47600274 pbc="T T T"
C        0.00000000       0.00000000      13.90372000      -0.00101800      -0.24983100       0.06374900
C        3.69000000       2.13042000      13.90378000      -0.21797600       0.12592900       0.06341500
C        2.46000000       0.00000000      13.89280000      -0.00100300       0.00066200       0.12034300
C        1.23000000       2.13042000      13.90372000       0.21591100       0.12591300       0.06376100
C       -0.00005000       1.42031000      13.94175000       0.00106000      -0.00068300       0.00441100
C       -1.23005000       3.55073000      13.89756000       0.08170900       0.04583900      -0.01062200
C        2.45995000       1.42031000      13.89756000       0.00110300      -0.09376300      -0.01061400
C        1.22995000       3.55073000      13.89750000      -0.07954200       0.04586200      -0.01035900
C        0.00000000       0.00000000      10.10921000       0.00000300      -0.32340000      -0.01543800
C        3.69000000       2.13042000      10.10921000      -0.27970000       0.16109500      -0.01542000
C        2.46000000       0.00000000      10.12526000       0.00041200      -0.00115600      -0.05843700
C        1.23000000       2.13042000      10.10921000       0.28016300       0.16034800      -0.01546600
C        1.23005000       0.71011000      10.10926000       0.27948700      -0.16200800      -0.02463100
C        0.00005000       2.84053000      10.10928000      -0.00200700       0.32559300      -0.02471900
C        3.69000000       0.71011000      10.10927000      -0.28008400      -0.16145200      -0.02468800
C        2.46000000       2.84053000      10.12585000       0.00144700       0.00109200      -0.08122000
Li       0.00001000       1.42027000      11.85506000       0.00003300      -0.00003900      -0.02406500
17
Lattice="4.920000076 0.0 0.0 -2.460000038 4.260845053 0.0 0.0 0.0 24.0" Properties=species:S:1:pos:R:3:forces:R:3 stress="-0.012462989248981557 6.373829119351984e-05 -1.810037646506145e-07 6.373829119351984e-05 -0.01238634351691571 2.4341885590944707e-07 -1.810037646506145e-07 2.4341885590944707e-07 0.00254124292362162" free_energy=-150.47849972 energy=-150.4772506 pbc="T T T"
C        0.00000000       0.00000000      13.90659000      -0.00101400      -0.25129400       0.01660200
C        3.69000000       2.13042000      13.90664000      -0.21922900       0.12665300       0.01636800
C        2.46000000       0.00000000      13.89824000      -0.00099300       0.00065500       0.04188600
C        1.23000000       2.13042000      13.90659000       0.21718000       0.12664100       0.01661000
C       -0.00005000       1.42031000      13.94193000       0.00105000      -0.00067700       0.04231500
C       -1.23005000       3.55073000      13.89705000       0.08104000       0.04546000       0.05177900
C        2.45995000       1.42031000      13.89705000       0.00109600      -0.09299300       0.05178600
C        1.22995000       3.55073000      13.89700000      -0.07888500       0.04548100       0.05196600
C        0.00000000       0.00000000      10.10853000       0.00000000      -0.32322500      -0.03523900
C        3.69000000       2.13042000      10.10853000      -0.27955000       0.16100900      -0.03522700
C        2.46000000       0.00000000      10.12263000       0.00041200      -0.00115600      -0.04799800
C        1.23000000       2.13042000      10.10853000       0.28000900       0.16026400      -0.03525600
C        1.23005000       0.71011000      10.10817000       0.27940200      -0.16195900      -0.02824800
C        0.00005000       2.84053000      10.10818000      -0.00200600       0.32548800      -0.02830700
C        3.69000000       0.71011000      10.10817000      -0.27999500      -0.16140100      -0.02828600
C        2.46000000       2.84053000      10.12219000       0.00144900       0.00109000      -0.03820700
Li       0.00001000       1.42027000      11.85397000       0.00003300      -0.00003600      -0.01254500
17
Lattice="4.920000076 0.0 0.0 -2.460000038 4.260845053 0.0 0.0 0.0 24.0" Properties=species:S:1:pos:R:3:forces:R:3 stress="-0.012462015573557918 6.371332515701631e-05 -1.6852074639884797e-07 6.371332515701631e-05 -0.012385394807528576 2.2469432853179729e-07 -1.6852074639884797e-07 2.2469432853179729e-07 0.0027755242101707746" free_energy=-150.47944419 energy=-150.47819001 pbc="T T T"
C        0.00000000       0.00000000      13.90752000      -0.00101000      -0.25021000       0.02965100
C        3.69000000       2.13042000      13.90755000      -0.21828300       0.12610700       0.02948600
C        2.46000000       0.00000000      13.90041000      -0.00099100       0.00065300       0.04333900
C        1.23000000       2.13042000      13.90752000       0.21624400       0.12609600       0.02965600
C       -0.00005000       1.42031000      13.94374000       0.00104500      -0.00067300       0.02061500
C       -1.23005000       3.55073000      13.89922000       0.08126400       0.04559600       0.03751700
C        2.45995000       1.42031000      13.89922000       0.00109100      -0.09325500       0.03752300
C        1.22995000       3.55073000      13.89918000      -0.07911500       0.04561400       0.03765700
C        0.00000000       0.00000000      10.10698000      -0.00000000      -0.32265000      -0.02722300
C        3.69000000       2.13042000      10.10698000      -0.27905300       0.16072300      -0.02722000
C        2.46000000       0.00000000      10.12041000       0.00041400      -0.00115700      -0.04456700
C        1.23000000       2.13042000      10.10698000       0.27951200       0.15997700      -0.02723500
C        1.23005000       0.71011000      10.10688000       0.27886800      -0.16165100      -0.02761600
C        0.00005000       2.84053000      10.10688000      -0.00200600       0.32487000      -0.02764200
C        3.69000000       0.71011000      10.10688000      -0.27946000      -0.16109300      -0.02763100
C        2.46000000       2.84053000      10.12030000       0.00144900       0.00108800      -0.04332900
Li       0.00001000       1.42027000      11.85336000       0.00003200      -0.00003500      -0.01298200
17
Lattice="4.920000076 0.0 0.0 -2.460000038 4.260845053 0.0 0.0 0.0 24.0" Properties=species:S:1:pos:R:3:forces:R:3 stress="-0.012455368366338853 6.355104591974334e-05 -1.1234716426589864e-07 6.355104591974334e-05 -0.012378934845583287 1.6852074639884797e-07 -1.1234716426589864e-07 1.6852074639884797e-07 0.002928016761134354" free_energy=-150.48586914 energy=-150.48457148 pbc="T T T"
C        0.00000000       0.00000000      13.91808000      -0.00098100      -0.25056500       0.04247600
C        3.69000000       2.13042000      13.91806000      -0.21853400       0.12625200       0.04271500
C        2.46000000       0.00000000      13.91620000      -0.00096700       0.00063700       0.03316100
C        1.23000000       2.13042000      13.91808000       0.21656700       0.12625000       0.04246900
C       -0.00005000       1.42031000      13.95120000       0.00100700      -0.00064800       0.00405700
C       -1.23005000       3.55073000      13.91239000       0.08026100       0.04505700       0.04245100
C        2.45995000       1.42031000      13.91239000       0.00105400      -0.09211800       0.04244200
C        1.22995000       3.55073000      13.91240000      -0.07816700       0.04506400       0.04230500
C        0.00000000       0.00000000      10.09730000      -0.00001100      -0.31935200      -0.06098900
C        3.69000000       2.13042000      10.09730000      -0.27619700       0.15907700      -0.06098100
C        2.46000000       0.00000000      10.10451000       0.00041500      -0.00115700       0.02333700
C        1.23000000       2.13042000      10.09730000       0.27664500       0.15833900      -0.06096200
C        1.23005000       0.71011000      10.09709000       0.27589000      -0.15993200      -0.06027300
C        0.00005000       2.84053000      10.09709000      -0.00200300       0.32140700      -0.06021400
C        3.69000000       0.71011000      10.09709000      -0.27646500      -0.15936900      -0.06023200
C        2.46000000       2.84053000      10.10479000       0.00145900       0.00108100       0.02370600
Li       0.00003000       1.42025000      11.84872000       0.00002500      -0.00002300       0.02453200
17
Lattice="4.920000076 0.0 0.0 -2.460000038 4.260845053 0.0 0.0 0.0 24.0" Properties=species:S:1:pos:R:3:forces:R:3 stress="-0.012374983970306603 5.860152918291792e-05 2.1658036666814906e-06 5.860152918291792e-05 -0.0123043051209651 -1.1796452247919358e-06 2.1658036666814906e-06 -1.1796452247919358e-06 0.0032974017542223765" free_energy=-150.49437923 energy=-150.493019 pbc="T T T"
C        0.00000000       0.00000000      13.93069000      -0.00122900      -0.25149200       0.05692600
C        3.69000000       2.13042000      13.93061000      -0.21970100       0.12692600       0.05750500
C        2.46000000       0.00000000      13.93347000      -0.00121600       0.00077800       0.02151800
C        1.23000000       2.13042000      13.93069000       0.21724800       0.12692900       0.05690900
C       -0.00005000       1.42031000      13.95889000       0.00539100      -0.00317400       0.03234500
C       -1.23005000       3.55073000      13.92779000       0.07875900       0.04454700       0.03576300
C        2.45995000       1.42031000      13.92779000       0.00074200      -0.09056200       0.03574400
C        1.22995000       3.55073000      13.92784000      -0.07727400       0.04454600       0.03536300
C        0.00000000       0.00000000      10.08494000      -0.00030100      -0.31459300      -0.07432000
C        3.69000000       2.13042000      10.08495000      -0.27250200       0.15695100      -0.07432500
C        2.46000000       0.00000000      10.08900000       0.00013600      -0.00099300       0.04096900
C        1.23000000       2.13042000      10.08494000       0.27238000       0.15621700      -0.07426600
C        1.23005000       0.71011000      10.08460000       0.27156100      -0.15743500      -0.07206800
C        0.00005000       2.84053000      10.08459000      -0.00227100       0.31684800      -0.07192500
C        3.69000000       0.71011000      10.08459000      -0.27266100      -0.15686400      -0.07197100
C        2.46000000       2.84053000      10.08973000       0.00119800       0.00122300       0.03861400
Li       0.00004000       1.42024000      11.84488000      -0.00026000       0.00014800       0.02722100
17
Lattice="4.920000076 0.0 0.0 -2.460000038 4.260845053 0.0 0.0 0.0 24.0" Properties=species:S:1:pos:R:3:forces:R:3 stress="-0.012242264520253822 6.38631213760375e-05 -9.362263688824886e-08 6.38631213760375e-05 -0.012165456508950701 2.0596980115414753e-07 -9.362263688824886e-08 2.0596980115414753e-07 0.002278556529040572" free_energy=-150.47262552 energy=-150.47142166 pbc="T T T"
C        0.00000000       0.00000000      13.89468000      -0.00103500      -0.25052300       0.02083700
C        3.69000000       2.13042000      13.89473000      -0.21859000       0.12628400       0.02055200
C        2.46000000       0.00000000      13.88582000      -0.00101100       0.00066700       0.05350500
C        1.23000000       2.13042000      13.89468000       0.21650200       0.12627300       0.02084600
C       -0.00005000       1.42031000      13.93408000       0.00105900      -0.00068400       0.03547200
C       -1.23005000       3.55073000      13.88559000       0.08261300       0.04634300       0.03530200
C        2.45995000       1.42031000      13.88559000       0.00111800      -0.09479700       0.03531100
C        1.22995000       3.55073000      13.88553000      -0.08042800       0.04637400       0.03557500
C        0.00000000       0.00000000      10.11923000       0.00000200      -0.32739900      -0.02501800
C        3.69000000       2.13042000      10.11923000      -0.28314600       0.16308100      -0.02500300
C        2.46000000       0.00000000      10.13367000       0.00042800      -0.00116600      -0.03874100
C        1.23000000       2.13042000      10.11923000       0.28362500       0.16234500      -0.02503800
C        1.23005000       0.71011000      10.11918000       0.28306100      -0.16406900      -0.02728000
C        0.00005000       2.84053000      10.11919000      -0.00201100       0.32972100      -0.02728900
C        3.69000000       0.71011000      10.11918000      -0.28365900      -0.16350800      -0.02726500
C        2.46000000       2.84053000      10.13339000       0.00144700       0.00109300      -0.03617300
Li       0.00003000       1.42026000      11.85700000       0.00002400      -0.00003500      -0.02559600
17
Lattice="4.920000076 0.0 0.0 -2.460000038 4.260845053 0.0 0.0 0.0 24.0" Properties=species:S:1:pos:R:3:forces:R:3 stress="-0.012241927478761024 6.38256723212822e-05 -9.362263688824886e-08 6.38256723212822e-05 -0.012165156916512659 2.0596980115414753e-07 -9.362263688824886e-08 2.0596980115414753e-07 0.0022719342878580093" free_energy=-150.47302157 energy=-150.4718163 pbc="T T T"
C        0.00000000       0.00000000      13.89491000      -0.00103100      -0.24949900       0.03010300
C        3.69000000       2.13042000      13.89495000      -0.21769400       0.12576700       0.02989400
C        2.46000000       0.00000000      13.88745000      -0.00100900       0.00066500       0.04695800
C        1.23000000       2.13042000      13.89491000       0.21561800       0.12575900       0.03010900
C       -0.00005000       1.42031000      13.93528000       0.00105200      -0.00068000       0.01788700
C       -1.23005000       3.55073000      13.88643000       0.08283400       0.04647800       0.03300900
C        2.45995000       1.42031000      13.88643000       0.00111200      -0.09505600       0.03301600
C        1.22995000       3.55073000      13.88637000      -0.08065500       0.04650400       0.03320800
C        0.00000000       0.00000000      10.11878000       0.00000200      -0.32774200      -0.02833000
C        3.69000000       2.13042000      10.11878000      -0.28344000       0.16325100      -0.02832100
C        2.46000000       0.00000000      10.13264000       0.00042700      -0.00116700      -0.03441100
C        1.23000000       2.13042000      10.11878000       0.28392000       0.16251600      -0.02834300
C        1.23005000       0.71011000      10.11862000       0.28333200      -0.16422500      -0.02887300