17
Lattice="4.920000076 0.0 0.0 -2.460000038 4.260845053 0.0 0.0 0.0 24.0" Properties=species:S:1:pos:R:3:forces:R:3 stress="-0.012278508963747825 5.392039733850546e-05 -2.8985568380601852e-05 5.392039733850546e-05 -0.012206893888037442 2.7936994847453462e-05 -2.8985568380601852e-05 2.7936994847453462e-05 0.0018755110772366605" free_energy=-150.41699636 energy=-150.41525644 pbc="T T T"
C        0.00000000       0.00000000      13.95000000      -0.00124400      -0.27412200      -0.03220200
C        3.69000000       2.13042000      13.95000000      -0.23897700       0.13763200      -0.03217800
C        2.46000000       0.00000000      13.95000000      -0.00123700       0.00037300       0.06314900
C        1.23000000       2.13042000      13.95000000       0.23647400       0.13762100      -0.03220500
C       -0.00005000       1.42031000      13.95000000       0.00384800      -0.00273800       1.04579400
C       -1.23005000       3.55073000      13.95000000       0.09295100       0.04884400      -0.01453200
C        2.45995000       1.42031000      13.95000000       0.00373000      -0.10569300      -0.01453300
C        1.22995000       3.55073000      13.95000000      -0.08549300       0.04884600      -0.01449700
C        0.00000000       0.00000000      10.05000000      -0.00046200      -0.23546900       0.00031000
C        3.69000000       2.13042000      10.05000000      -0.20401800       0.11705200       0.00029300
C        2.46000000       0.00000000      10.05000000      -0.00009200      -0.00120500       0.06803000
C        1.23000000       2.13042000      10.05000000       0.20348900       0.11626500       0.00027300
C        1.23005000       0.71011000      10.05000000       0.20091100      -0.11716500      -0.00237100
C        0.00005000       2.84053000      10.05000000      -0.00543400       0.24038600      -0.00250800
C        3.69000000       0.71011000      10.05000000      -0.20526600      -0.11478100      -0.00246200
C        2.46000000       2.84053000      10.05000000       0.00116900       0.00439700       0.07252700
Li      -0.00005000       1.42031000      12.00000000      -0.00034900      -0.00024300      -1.10288900
17
Lattice="4.920000076 0.0 0.0 -2.460000038 4.260845053 0.0 0.0 0.0 24.0" Properties=species:S:1:pos:R:3:forces:R:3 stress="-0.01236846783477918 6.283951387939265e-05 -5.055622391965439e-07 6.283951387939265e-05 -0.012293338789430926 3.86973565804762e-07 -5.055622391965439e-07 3.86973565804762e-07 0.0035162477887032218" free_energy=-150.48291947 energy=-150.48122286 pbc="T T T"
C        0.00000000       0.00000000      13.94845000      -0.00086800      -0.23890800       0.19036700
C        3.69000000       2.13042000      13.94845000      -0.20829100       0.12034900       0.19029800
C        2.46000000       0.00000000      13.95305000      -0.00086100       0.00058500       0.06858900
C        1.23000000       2.13042000      13.94845000       0.20654000       0.12034100       0.19036100
C       -0.00005000       1.42031000      14.00045000       0.00095200      -0.00062200      -0.07888000
C       -1.23005000       3.55073000      13.94930000       0.09391600       0.05309000      -0.03731300
C        2.45995000       1.42031000      13.94930000       0.00090900      -0.10797200      -0.03731100
C        1.22995000       3.55073000      13.94930000      -0.09205300       0.05306400      -0.03756500
C        0.00000000       0.00000000      10.05001000      -0.00006500      -0.25368400      -0.00369100
C        3.69000000       2.13042000      10.05001000      -0.21956200       0.12645200      -0.00373600
C        2.46000000       0.00000000      10.05328000       0.00029800      -0.00101700       0.02560900
C        1.23000000       2.13042000      10.05001000       0.21982100       0.12566300      -0.00370800
C        1.23005000       0.71011000      10.04989000       0.22023900      -0.12786900       0.00491000
C        0.00005000       2.84053000      10.04988000      -0.00189500       0.25691500       0.00497400
C        3.69000000       0.71011000      10.04988000      -0.22063300      -0.12732500       0.00493200
C        2.46000000       2.84053000      10.05350000       0.00152200       0.00096500       0.02738500
Li      -0.00007000       1.42030000      11.94679000       0.00003100      -0.00002800      -0.50522100
17
Lattice="4.920000076 0.0 0.0 -2.460000038 4.260845053 0.0 0.0 0.0 24.0" Properties=species:S:1:pos:R:3:forces:R:3 stress="-0.012379259404057834 6.279582331551147e-05 -4.3066412968594477e-07 6.279582331551147e-05 -0.012304136600218703 3.3079998367181266e-07 -4.3066412968594477e-07 3.3079998367181266e-07 0.003712462111093613" free_energy=-150.49706205 energy=-150.49535469 pbc="T T T"
C        0.00000000       0.00000000      13.95807000      -0.00085600      -0.24826300       0.01428900
C        3.69000000       2.13042000      13.95807000      -0.21637300       0.12501200       0.01432400
C        2.46000000       0.00000000      13.95651000      -0.00085100       0.00057700      -0.02962600
C        1.23000000       2.13042000      13.95807000       0.21464200       0.12500100       0.01428900
C       -0.00005000       1.42031000      13.99646000       0.00094000      -0.00061300       0.02217700
C       -1.23005000       3.55073000      13.94741000       0.08789700       0.04963300       0.11260400
C        2.45995000       1.42031000      13.94741000       0.00089700      -0.10102700       0.11260400
C        1.22995000       3.55073000      13.94740000      -0.08605800       0.04960700       0.11250800
C        0.00000000       0.00000000      10.04983000      -0.00006500      -0.26360200       0.00907300
C        3.69000000       2.13042000      10.04983000      -0.22814300       0.13139900       0.00905400
C        2.46000000       0.00000000      10.05458000       0.00029900      -0.00102500       0.02062400
C        1.23000000       2.13042000      10.04983000       0.22840300       0.13061200       0.00907200
C        1.23005000       0.71011000      10.05013000       0.22876600      -0.13278400      -0.01458400
C        0.00005000       2.84053000      10.05013000      -0.00189500       0.26677200      -0.01456500
C        3.69000000       0.71011000      10.05013000      -0.22916400      -0.13224100      -0.01458200
C        2.46000000       2.84053000      10.05488000       0.00152100       0.00097200       0.00230500
Li      -0.00006000       1.42030000      11.92125000       0.00003800      -0.00003000      -0.37956700
17
Lattice="4.920000076 0.0 0.0 -2.460000038 4.260845053 0.0 0.0 0.0 24.0" Properties=species:S:1:pos:R:3:forces:R:3 stress="-0.012563589893072543 6.285199689764442e-05 -4.4938865706359457e-07 6.285199689764442e-05 -0.012488342259050895 3.4328300192357923e-07 -4.4938865706359457e-07 3.4328300192357923e-07 0.00392633366280113" free_energy=-150.50625231 energy=-150.50458658 pbc="T T T"
C        0.00000000       0.00000000      13.96030000      -0.00086600      -0.24699300       0.04199000
C        3.69000000       2.13042000      13.96030000      -0.21528700       0.12438300       0.04205000
C        2.46000000       0.00000000      13.95544000      -0.00086200       0.00058200       0.06443600
C        1.23000000       2.13042000      13.96030000       0.21353500       0.12437000       0.04199100
C       -0.00005000       1.42031000      13.99706000       0.00094900      -0.00061500      -0.04800400
C       -1.23005000       3.55073000      13.95321000       0.08424000       0.04750800       0.04802100
C        2.45995000       1.42031000      13.95321000       0.00091100      -0.09679500       0.04801900
C        1.22995000       3.55073000      13.95319000      -0.08237600       0.04748500       0.04801700
C        0.00000000       0.00000000      10.05029000      -0.00005700      -0.27391500      -0.02287700
C        3.69000000       2.13042000      10.05029000      -0.23704700       0.13652800      -0.02288100
C        2.46000000       0.00000000      10.05589000       0.00030900      -0.00104200      -0.01212200
C        1.23000000       2.13042000      10.05029000       0.23732700       0.13574400      -0.02286800
C        1.23005000       0.71011000      10.04938000       0.23705100      -0.13755600       0.01046400
C        0.00005000       2.84053000      10.04938000      -0.00190600       0.27637300       0.01046000
C        3.69000000       0.71011000      10.04938000      -0.23747500      -0.13701400       0.01045700
C        2.46000000       2.84053000      10.05522000       0.00150900       0.00099000       0.01390700
Li      -0.00006000       1.42030000      11.89687000       0.00004300      -0.00003200      -0.25106000
17
Lattice="4.920000076 0.0 0.0 -2.460000038 4.260845053 0.0 0.0 0.0 24.0" Properties=species:S:1:pos:R:3:forces:R:3 stress="-0.01289800995203737 5.986855553547222e-05 -1.0111244783930878e-05 5.986855553547222e-05 -0.012826107766907192 5.910709142211445e-06 -1.0111244783930878e-05 5.910709142211445e-06 0.003941669050723425" free_energy=-150.51437837 energy=-150.51275201 pbc="T T T"
C        0.00000000       0.00000000      13.96603000      -0.00049500      -0.25075100       0.01946800
C        3.69000000       2.13042000      13.96604000      -0.21798900       0.12593800       0.01948700
C        2.46000000       0.00000000      13.96120000      -0.00049200       0.00036200       0.06839600
C        1.23000000       2.13042000      13.96603000       0.21697200       0.12592100       0.01947100
C       -0.00005000       1.42031000      13.99256000       0.00134100      -0.00083400      -0.01119700
C       -1.23005000       3.55073000      13.96041000       0.07858600       0.04378900       0.03452900
C        2.45995000       1.42031000      13.96041000       0.00131000      -0.09003400       0.03452900
C        1.22995000       3.55073000      13.96039000      -0.07593500       0.04377100       0.03459800
C        0.00000000       0.00000000      10.04836000       0.00033000      -0.29019900       0.00717200
C        3.69000000       2.13042000      10.04835000      -0.25054600       0.14430600       0.00717700
C        2.46000000       0.00000000      10.05549000       0.00069900      -0.00128400       0.01079000
C        1.23000000       2.13042000      10.04836000       0.25160600       0.14352600       0.00718000
C        1.23005000       0.71011000      10.05001000       0.24798200      -0.14385100      -0.04685300
C        0.00005000       2.84053000      10.05001000      -0.00470700       0.29402600      -0.04703600
C        3.69000000       0.71011000      10.05001000      -0.25097300      -0.14522100      -0.05090200
C        2.46000000       2.84053000      10.05679000       0.00188300       0.00078900      -0.03131800
Li      -0.00006000       1.42029000      11.85953000       0.00042700      -0.00025400      -0.07549200
17
Lattice="4.920000076 0.0 0.0 -2.460000038 4.260845053 0.0 0.0 0.0 24.0" Properties=species:S:1:pos:R:3:forces:R:3 stress="-0.012909775196739658 6.309541575355385e-05 -2.746264015388634e-07 6.309541575355385e-05 -0.012834371524989863 3.4328300192357923e-07 -2.746264015388634e-07 3.4328300192357923e-07 0.003910330433402365" free_energy=-150.51579565 energy=-150.51419723 pbc="T T T"
C        0.00000000       0.00000000      13.96818000      -0.00087700      -0.25128300       0.00226700
C        3.69000000       2.13042000      13.96819000      -0.21903000       0.12654700       0.00225200
C        2.46000000       0.00000000      13.96522000      -0.00087300       0.00058700       0.05979700
C        1.23000000       2.13042000      13.96818000       0.21724600       0.12652900       0.00227300
C       -0.00005000       1.42031000      13.99119000       0.00095900      -0.00061400       0.00076100
C       -1.23005000       3.55073000      13.96352000       0.07633900       0.04291800       0.03827700
C        2.45995000       1.42031000      13.96352000       0.00093300      -0.08766100       0.03828000
C        1.22995000       3.55073000      13.96350000      -0.07445400       0.04290700       0.03834100
C        0.00000000       0.00000000      10.04831000      -0.00007600      -0.29545900      -0.02429200
C        3.69000000       2.13042000      10.04830000      -0.25566100       0.14722500      -0.02429900
C        2.46000000       0.00000000      10.05594000       0.00040100      -0.00104300      -0.02346000
C        1.23000000       2.13042000      10.04830000       0.25598600       0.14649000      -0.02375200
C        1.23005000       0.71011000      10.04812000       0.25517700      -0.14797800      -0.01971800
C        0.00005000       2.84053000      10.04811000      -0.00190700       0.29734000      -0.01964700
C        3.69000000       0.71011000      10.04794000      -0.25562300      -0.14744900      -0.01795300
C        2.46000000       2.84053000      10.05579000       0.00147900       0.00100400      -0.01575900
Li      -0.00004000       1.42028000      11.84769000      -0.00001900      -0.00006100      -0.01336900
17
Lattice="4.920000076 0.0 0.0 -2.460000038 4.260845053 0.0 0.0 0.0 24.0" Properties=species:S:1:pos:R:3:forces:R:3 stress="-0.012915392554952953 6.303300066229503e-05 -2.9335092891651315e-07 6.303300066229503e-05 -0.012839913985093645 3.120754562941629e-07 -2.9335092891651315e-07 3.120754562941629e-07 0.003910804788095932" free_energy=-150.51638153 energy=-150.51478157 pbc="T T T"
C        0.00000000       0.00000000      13.96855000      -0.00088100      -0.25145700       0.01688400
C        3.69000000       2.13042000      13.96855000      -0.21918500       0.12662900       0.01685300
C        2.46000000       0.00000000      13.96829000      -0.00087700       0.00058400       0.04073700
C        1.23000000       2.13042000      13.96855000       0.21739100       0.12661200       0.01688700
C       -0.00005000       1.42031000      13.99105000       0.00096300      -0.00061000       0.00142100
C       -1.23005000       3.55073000      13.96556000       0.07627400       0.04287900       0.03145000
C        2.45995000       1.42031000      13.96556000       0.00093900      -0.08757600       0.03145400
C        1.22995000       3.55073000      13.96555000      -0.07438000       0.04287000       0.03150000
C        0.00000000       0.00000000      10.04716000      -0.00006300      -0.29598500      -0.02229800
C        3.69000000       2.13042000      10.04715000      -0.25610900       0.14749900      -0.02229100
C        2.46000000       0.00000000      10.05490000       0.00036900      -0.00106200      -0.02277800
C        1.23000000       2.13042000      10.04718000       0.25642700       0.14674400      -0.02223300
C        1.23005000       0.71011000      10.04713000       0.25558200      -0.14822400      -0.02312900
C        0.00005000       2.84053000      10.04712000      -0.00191800       0.29781400      -0.02308600
C        3.69000000       0.71011000      10.04702000      -0.25602700      -0.14768000      -0.02216200
C        2.46000000       2.84053000      10.05505000       0.00150000       0.00101500      -0.02192900
Li      -0.00004000       1.42028000      11.84562000      -0.00000500      -0.00005100      -0.00727900
17
Lattice="4.920000076 0.0 0.0 -2.460000038 4.260845053 0.0 0.0 0.0 24.0" Properties=species:S:1:pos:R:3:forces:R:3 stress="-0.012944403089370058 6.295810255278442e-05 -3.3079998367181266e-07 6.295810255278442e-05 -0.012868887070455996 2.746264015388634e-07 -3.3079998367181266e-07 2.746264015388634e-07 0.0039847104976555164" free_energy=-150.5170079 energy=-150.51540175 pbc="T T T"
C        0.00000000       0.00000000      13.96997000      -0.00088300      -0.25188200       0.00693700
C        3.69000000       2.13042000      13.96997000      -0.21955100       0.12683600       0.00690700
C        2.46000000       0.00000000      13.97161000      -0.00087800       0.00058000      -0.01183800
C        1.23000000       2.13042000      13.96997000       0.21775700       0.12681900       0.00693700
C       -0.00005000       1.42031000      13.99101000       0.00096400      -0.00060600       0.02196700
C       -1.23005000       3.55073000      13.96821000       0.07591100       0.04267200       0.02413200
C        2.45995000       1.42031000      13.96821000       0.00094000      -0.08715300       0.02413300
C        1.22995000       3.55073000      13.96820000      -0.07401700       0.04266500       0.02416500
C        0.00000000       0.00000000      10.04545000      -0.00005200      -0.29619900      -0.01542200
C        3.69000000       2.13042000      10.04544000      -0.25628800       0.14761700      -0.01540600
C        2.46000000       0.00000000      10.05321000       0.00033600      -0.00108000      -0.00477900
C        1.23000000       2.13042000      10.04548000       0.25660200       0.14684600      -0.01565100
C        1.23005000       0.71011000      10.04540000       0.25572000      -0.14831100      -0.01713800
C        0.00005000       2.84053000      10.04540000      -0.00192600       0.29797400      -0.01712400
C        3.69000000       0.71011000      10.04537000      -0.25616500      -0.14776000      -0.01693800
C        2.46000000       2.84053000      10.05348000       0.00151400       0.00101900      -0.00575800
Li      -0.00004000       1.42027000      11.84361000       0.00001700      -0.00003800       0.00487700
17
Lattice="4.920000076 0.0 0.0 -2.460000038 4.260845053 0.0 0.0 0.0 24.0" Properties=species:S:1:pos:R:3:forces:R:3 stress="-0.01292892414673787 6.298931009841384e-05 -5.242867665741937e-07 6.298931009841384e-05 -0.012853489267442444 3.8073205667887874e-07 -5.242867665741937e-07 3.8073205667887874e-07 0.003911391489953765" free_energy=-150.51685072 energy=-150.515239 pbc="T T T"
C        0.00000000       0.00000000      13.96992000      -0.00088400      -0.25127100       0.03434200
C        3.69000000       2.13042000      13.96993000      -0.21893700       0.12648400       0.00845200
C        2.46000000       0.00000000      13.96791000      -0.00088000       0.00058300       0.08141900
C        1.23000000       2.13042000      13.96992000       0.21722700       0.12651800       0.03434400
C       -0.00005000       1.42031000      13.99275000       0.00095000      -0.00060500      -0.00368700
C       -1.23005000       3.55073000      13.96787000       0.07641600       0.04297400       0.00238300
C        2.45995000       1.42031000      13.96787000       0.00092500      -0.08775000       0.00238300
C        1.22995000       3.55073000      13.96785000      -0.07454600       0.04296300       0.00241200
C        0.00000000       0.00000000      10.04521000      -0.00006900      -0.29485600      -0.01536900
C        3.69000000       2.13042000      10.04520000      -0.25514100       0.14694400      -0.01537600
C        2.46000000       0.00000000      10.05388000       0.00035800      -0.00105900      -0.01756900
C        1.23000000       2.13042000      10.04520000       0.25543900       0.14618300      -0.01518300
C        1.23005000       0.71011000      10.04538000       0.25471900      -0.14772300      -0.02230700
C        0.00005000       2.84053000      10.04537000      -0.00191900       0.29681900      -0.02227500
C        3.69000000       0.71011000      10.04531000      -0.25515800      -0.14717600      -0.02164500
C        2.46000000       2.84053000      10.05422000       0.00148700       0.00100800      -0.02279700
Li      -0.00004000       1.42027000      11.84620000       0.00001300      -0.00003600      -0.00952900
17
Lattice="4.920000076 0.0 0.0 -2.460000038 4.260845053 0.0 0.0 0.0 24.0" Properties=species:S:1:pos:R:3:forces:R:3 stress="-0.012990153351262784 6.13290686709289e-05 -2.2731576236466827e-05 6.13290686709289e-05 -0.012916509785086487 1.3132135200858375e-05 -2.2731576236466827e-05 1.3132135200858375e-05 0.003964937396744718" free_energy=-150.51727965 energy=-150.51565449 pbc="T T T"
C        0.00000000       0.00000000      13.97163000      -0.00139700      -0.25108200      -0.00757300
C        3.69000000       2.13042000      13.97068000      -0.21940200       0.12675100       0.01077800
C        2.46000000       0.00000000      13.97122000      -0.00154100       0.00096300       0.02515700
C        1.23000000       2.13042000      13.97163000       0.21680700       0.12686500      -0.00757400
C       -0.00005000       1.42031000      13.99385000       0.00004800      -0.00007700      -0.00830100
C       -1.23005000       3.55073000      13.96992000       0.07947200       0.04116500       0.00499800
C        2.45995000       1.42031000      13.96992000       0.00402600      -0.08948200       0.00499700
C        1.22995000       3.55073000      13.96991000      -0.07170600       0.04133000       0.01294000
C        0.00000000       0.00000000      10.04334000      -0.00073800      -0.29370500      -0.00388800
C        3.69000000       2.13042000      10.04334000      -0.25515200       0.14696600      -0.00390000
C        2.46000000       0.00000000      10.05245000      -0.00035800      -0.00069000      -0.00283900
C        1.23000000       2.13042000      10.04334000       0.25409800       0.14619700      -0.00393000
C        1.23005000       0.71011000      10.04329000       0.25327200      -0.14690000      -0.00600100
C        0.00005000       2.84053000      10.04329000      -0.00259300       0.29627500      -0.00602300
C        3.69000000       0.71011000      10.04330000      -0.25503800      -0.14634000      -0.00618100
C        2.46000000       2.84053000      10.05270000       0.00084700       0.00139000      -0.00385500
Li      -0.00004000       1.42027000      11.84622000      -0.00064500       0.00037400       0.00119300
17
Lattice="4.920000076 0.0 0.0 -2.460000038 4.260845053 0.0 0.0 0.0 24.0" Properties=species:S:1:pos:R:3:forces:R:3 stress="-0.013106070658748685 6.247126484096553e-05 -7.302565677283412e-07 6.247126484096553e-05 -0.013031078926601198 3.994565840565286e-07 -7.302565677283412e-07 3.994565840565286e-07 0.003930172190913547" free_energy=-150.51722497 energy=-150.51559391 pbc="T T T"
C        0.00000000       0.00000000      13.97209000      -0.00083500      -0.25156300       0.01095900
C        3.69000000       2.13042000      13.97169000      -0.21910600       0.12658000       0.01386900
C        2.46000000       0.00000000      13.97311000      -0.00083800       0.00055500       0.03289800
C        1.23000000       2.13042000      13.97209000       0.21750300       0.12661800       0.01095800
C       -0.00005000       1.42031000      13.99414000       0.00086800      -0.00054900       0.00383900
C       -1.23005000       3.55073000      13.97133000       0.07622200       0.04296700      -0.03383700
C        2.45995000       1.42031000      13.97133000       0.00084100      -0.08756800      -0.03384000
C        1.22995000       3.55073000      13.97164000      -0.07438300       0.04287700      -0.03567600
C        0.00000000       0.00000000      10.04216000      -0.00004300      -0.29350300       0.00515800
C        3.69000000       2.13042000      10.04216000      -0.25396900       0.14629000       0.00511700
C        2.46000000       0.00000000      10.05161000       0.00029300      -0.00108100      -0.00005800
C        1.23000000       2.13042000      10.04215000       0.25426400       0.14549800       0.00509100
C        1.23005000       0.71011000      10.04207000       0.25341100      -0.14698300       0.00363900
C        0.00005000       2.84053000      10.04207000      -0.00192400       0.29528900       0.00360300
C        3.69000000       0.71011000      10.04211000      -0.25384900      -0.14642800       0.00317800
C        2.46000000       2.84053000      10.05189000       0.00151100       0.00100700      -0.00093900
Li      -0.00006000       1.42028000      11.84638000       0.00003700      -0.00000600       0.00604000
17
Lattice="4.920000076 0.0 0.0 -2.460000038 4.260845053 0.0 0.0 0.0 24.0" Properties=species:S:1:pos:R:3:forces:R:3 stress="-0.013098200115740947 7.320666053748474e-05 -1.8724527377649775e-06 7.320666053748474e-05 -0.01301083771250596 1.0922640970295703e-06 -1.8724527377649775e-06 1.0922640970295703e-06 0.003913139112509012" free_energy=-150.51728214 energy=-150.51565435 pbc="T T T"
C        0.00000000       0.00000000      13.97170000      -0.00195000      -0.25080300       0.00553500
C        3.69000000       2.13042000      13.97160000      -0.22020500       0.12721500       0.00542800
C        2.46000000       0.00000000      13.97295000      -0.00193100       0.00118700       0.02377900
C        1.23000000       2.13042000      13.97170000       0.21628800       0.12720500       0.00553400
C       -0.00005000       1.42031000      13.99371000       0.00817300      -0.00476800       0.01103800
C       -1.23005000       3.55073000      13.97064000       0.08011000       0.04054900      -0.02325900
C        2.45995000       1.42031000      13.97064000       0.00487800      -0.08972700      -0.02326100
C        1.22995000       3.55073000      13.97092000      -0.07537700       0.04344900      -0.03139200
C        0.00000000       0.00000000      10.04282000      -0.00112500      -0.29358800       0.00185900
C        3.69000000       2.13042000      10.04281000      -0.25565600       0.14725900       0.00182300
C        2.46000000       0.00000000      10.05201000      -0.00077200      -0.00045500       0.00126700
C        1.23000000       2.13042000      10.04281000       0.25380000       0.14647600       0.00182800
C        1.23005000       0.71011000      10.04265000       0.25292700      -0.14670000       0.00248000
C        0.00005000       2.84053000      10.04265000      -0.00300000       0.29661000       0.00246500
C        3.69000000       0.71011000      10.04266000      -0.25553100      -0.14615400       0.00230700
C        2.46000000       2.84053000      10.05223000       0.00042300       0.00163400       0.00250300
Li      -0.00006000       1.42028000      11.84551000      -0.00105100       0.00060900       0.01006700
17
Lattice="4.920000076 0.0 0.0 -2.460000038 4.260845053 0.0 0.0 0.0 24.0" Properties=species:S:1:pos:R:3:forces:R:3 stress="-0.013097669587465248 7.322538506486238e-05 -1.8724527377649775e-06 7.322538506486238e-05 -0.013010288459702883 1.086022587903687e-06 -1.8724527377649775e-06 1.086022587903687e-06 0.003917501927388004" free_energy=-150.51728248 energy=-150.51565635 pbc="T T T"
C        0.00000000       0.00000000      13.97170000      -0.00196100      -0.25089900       0.00549500
C        3.69000000       2.13042000      13.97160000      -0.22027300       0.12725400       0.00543400
C        2.46000000       0.00000000      13.97295000      -0.00192900       0.00118600       0.02373100
C        1.23000000       2.13042000      13.97170000       0.21636700       0.12726300       0.00549400
C       -0.00005000       1.42031000      13.99371000       0.00825200      -0.00481300       0.01113000
C       -1.23005000       3.55073000      13.97064000       0.08007900       0.04059000      -0.02317000
C        2.45995000       1.42031000      13.97064000       0.00482800      -0.08972000      -0.02317100
C        1.22995000       3.55073000      13.97091000      -0.07535300       0.04343600      -0.03138000
C        0.00000000       0.00000000      10.04282000      -0.00112800      -0.29357100       0.00188400
C        3.69000000       2.13042000      10.04281000      -0.25565100       0.14725400       0.00185500
C        2.46000000       0.00000000      10.05201000      -0.00077200      -0.00045200       0.00125100
C        1.23000000       2.13042000      10.04281000       0.25378500       0.14646800       0.00186000
C        1.23005000       0.71011000      10.04265000       0.25291100      -0.14669100       0.00253200
C        0.00005000       2.84053000      10.04265000      -0.00300600       0.29659700       0.00251800
C        3.69000000       0.71011000      10.04266000      -0.25552400      -0.14614300       0.00235000
C        2.46000000       2.84053000      10.05223000       0.00042400       0.00163400       0.00250200
Li      -0.00006000       1.42028000      11.84551000      -0.00104900       0.00060900       0.00968300
17
Lattice="4.920000076 0.0 0.0 -2.460000038 4.260845053 0.0 0.0 0.0 24.0" Properties=species:S:1:pos:R:3:forces:R:3 stress="-0.013092183300943597 5.6885114173300014e-05 7.995373190256454e-06 5.6885114173300014e-05 -0.013023682738287027 -4.599992225775961e-06 7.995373190256454e-06 -4.599992225775961e-06 0.003922495134688711" free_energy=-150.51727316 energy=-150.51564826 pbc="T T T"
C        0.00000000       0.00000000      13.97172000      -0.00146500      -0.25106700       0.00732600
C        3.69000000       2.13042000      13.97162000      -0.21967200       0.12690700       0.00771900
C        2.46000000       0.00000000      13.97294000      -0.00144700       0.00090800       0.02579100
C        1.23000000       2.13042000      13.97172000       0.21676000       0.12691700       0.00733300
C       -0.00005000       1.42031000      13.99386000       0.00036500      -0.00026000       0.00192400
C       -1.23005000       3.55073000      13.97075000       0.08055200       0.04029500      -0.02655900
C        2.45995000       1.42031000      13.97075000       0.00532000      -0.08998300      -0.02657400
C        1.22995000       3.55073000      13.97092000      -0.07484300       0.04314100      -0.03087700
C        0.00000000       0.00000000      10.04280000      -0.00063700      -0.29404900       0.00267600
C        3.69000000       2.13042000      10.04280000      -0.25532900       0.14706800       0.00258900
C        2.46000000       0.00000000      10.05200000      -0.00027700      -0.00073400       0.00221900
C        1.23000000       2.13042000      10.04280000       0.25444700       0.14628200       0.00262700
C        1.23005000       0.71011000      10.04265000       0.25357100      -0.14707300       0.00282400