17
Lattice="4.920000076 0.0 0.0 -2.460000038 4.260845053 0.0 0.0 0.0 24.0" Properties=species:S:1:pos:R:3:forces:R:3 stress="-0.011880400545662488 6.471196661715762e-05 -6.615999673436253e-07 6.471196661715762e-05 -0.011802487787244086 6.366339308400924e-07 -6.615999673436253e-07 6.366339308400924e-07 -0.011670723288087567" free_energy=-149.78662142 energy=-149.78571389 pbc="T T T"
C        0.00000000       0.00000000      13.70000000      -0.00113300      -0.32594500       0.13505200
C        3.69000000       2.13042000      13.70000000      -0.28403600       0.16405800       0.13516800
C        2.46000000       0.00000000      13.70000000      -0.00116000       0.00074100       0.07270400
C        1.23000000       2.13042000      13.70000000       0.28176500       0.16405600       0.13504800
C       -0.00005000       1.42031000      13.70000000       0.00117100      -0.00073600       3.43163400
C       -1.23005000       3.55073000      13.70000000       0.11048700       0.06233000       0.03006700
C        2.45995000       1.42031000      13.70000000       0.00121400      -0.12693800       0.03006600
C        1.22995000       3.55073000      13.70000000      -0.10801300       0.06230500       0.03007000
C        0.00000000       0.00000000      10.30000000      -0.00000700      -0.34563800      -0.18378300
C        3.69000000       2.13042000      10.30000000      -0.29899900       0.17222400      -0.18380600
C        2.46000000       0.00000000      10.30000000       0.00039100      -0.00115700       0.07719500
C        1.23000000       2.13042000      10.30000000       0.29939600       0.17145300      -0.18380000
C        1.23005000       0.71011000      10.30000000       0.30067000      -0.17421900      -0.18512700
C        0.00005000       2.84053000      10.30000000      -0.00198000       0.35013900      -0.18527900
C        3.69000000       0.71011000      10.30000000      -0.30130200      -0.17371500      -0.18526300
C        2.46000000       2.84053000      10.30000000       0.00142800       0.00113100       0.07309900
Li      -0.00005000       1.42031000      12.00000000       0.00010700      -0.00008800      -3.04304600
17
Lattice="4.920000076 0.0 0.0 -2.460000038 4.260845053 0.0 0.0 0.0 24.0" Properties=species:S:1:pos:R:3:forces:R:3 stress="-0.012196520499870224 6.400043457680694e-05 -1.2358188069248851e-06 6.400043457680694e-05 -0.012119481552729445 1.0111244783930879e-06 -1.2358188069248851e-06 1.0111244783930879e-06 -0.0038872742986913525" free_energy=-150.10407035 energy=-150.10326773 pbc="T T T"
C        0.00000000       0.00000000      13.70652000      -0.00132100      -0.13213300       0.75464700
C        3.69000000       2.13042000      13.70652000      -0.11636400       0.06724100       0.75449900
C        2.46000000       0.00000000      13.70351000      -0.00128400       0.00080100       0.23717600
C        1.23000000       2.13042000      13.70652000       0.11381100       0.06729100       0.75464200
C       -0.00005000       1.42031000      13.86555000       0.00130500      -0.00081300      -1.30050400
C       -1.23005000       3.55073000      13.70145000       0.09859600       0.05532200      -0.01183100
C        2.45995000       1.42031000      13.70145000       0.00134700      -0.11309600      -0.01183400
C        1.22995000       3.55073000      13.70145000      -0.09585400       0.05529400      -0.01251700
C        0.00000000       0.00000000      10.29113000      -0.00005600      -0.46148100      -0.26386700
C        3.69000000       2.13042000      10.29113000      -0.39941000       0.23021000      -0.26397500
C        2.46000000       0.00000000      10.30372000       0.00034200      -0.00112100      -0.05054400
C        1.23000000       2.13042000      10.29113000       0.39969900       0.22943700      -0.26387600
C        1.23005000       0.71011000      10.29107000       0.39933100      -0.23119000      -0.25356400
C        0.00005000       2.84053000      10.29106000      -0.00190800       0.46398400      -0.25365200
C        3.69000000       0.71011000      10.29106000      -0.39986300      -0.23070400      -0.25362800
C        2.46000000       2.84053000      10.30353000       0.00148900       0.00108300      -0.04197600
Li      -0.00004000       1.42031000      11.85320000       0.00013900      -0.00012300       0.48080500
17
Lattice="4.920000076 0.0 0.0 -2.460000038 4.260845053 0.0 0.0 0.0 24.0" Properties=species:S:1:pos:R:3:forces:R:3 stress="-0.012138193597088844 6.44186156882411e-05 -7.73947131609524e-07 6.44186156882411e-05 -0.012060636604690618 6.865660038471585e-07 -7.73947131609524e-07 6.865660038471585e-07 -0.004711715239129272" free_energy=-150.18705467 energy=-150.18623246 pbc="T T T"
C        0.00000000       0.00000000      13.73341000      -0.00125800      -0.24964100       0.13653700
C        3.69000000       2.13042000      13.73341000      -0.21809500       0.12597900       0.13665700
C        2.46000000       0.00000000      13.71196000      -0.00124900       0.00078800      -0.00375800
C        1.23000000       2.13042000      13.73341000       0.21560600       0.12599400       0.13653500
C       -0.00005000       1.42031000      13.81920000       0.00129000      -0.00080900       0.05426400
C       -1.23005000       3.55073000      13.70103000       0.09648400       0.05414900       0.35285700
C        2.45995000       1.42031000      13.70103000       0.00130200      -0.11068400       0.35285500
C        1.22995000       3.55073000      13.70100000      -0.09381900       0.05411500       0.35260900
C        0.00000000       0.00000000      10.28173000      -0.00004400      -0.43702600      -0.20785700
C        3.69000000       2.13042000      10.28172000      -0.37819400       0.21795700      -0.20795300
C        2.46000000       0.00000000      10.30192000       0.00035900      -0.00113600      -0.14692500
C        1.23000000       2.13042000      10.28173000       0.37852600       0.21719400      -0.20787200
C        1.23005000       0.71011000      10.28203000       0.37846300      -0.21913900      -0.20642200
C        0.00005000       2.84053000      10.28202000      -0.00193100       0.43990700      -0.20641200
C        3.69000000       0.71011000      10.28202000      -0.37902300      -0.21864200      -0.20641100
C        2.46000000       2.84053000      10.30203000       0.00146800       0.00109600      -0.14172400
Li      -0.00004000       1.42030000      11.87033000       0.00011700      -0.00010300       0.01302100
17
Lattice="4.920000076 0.0 0.0 -2.460000038 4.260845053 0.0 0.0 0.0 24.0" Properties=species:S:1:pos:R:3:forces:R:3 stress="-0.012130953446502819 6.443109870649287e-05 -8.238792046165901e-07 6.443109870649287e-05 -0.012053402695613719 6.928075129730417e-07 -8.238792046165901e-07 6.928075129730417e-07 -0.004312595696565541" free_energy=-150.21443056 energy=-150.21358163 pbc="T T T"
C        0.00000000       0.00000000      13.73889000      -0.00124400      -0.24753500       0.22620100
C        3.69000000       2.13042000      13.73889000      -0.21625200       0.12491700       0.22633500
C        2.46000000       0.00000000      13.71177000      -0.00123700       0.00078200       0.19651600
C        1.23000000       2.13042000      13.73889000       0.21378700       0.12492900       0.22619900
C       -0.00005000       1.42031000      13.82160000       0.00127200      -0.00079600       0.05846100
C       -1.23005000       3.55073000      13.71546000       0.09569400       0.05370300       0.20040500
C        2.45995000       1.42031000      13.71546000       0.00129400      -0.10977600       0.20040200
C        1.22995000       3.55073000      13.71543000      -0.09305800       0.05367600       0.20030400
C        0.00000000       0.00000000      10.27327000      -0.00004200      -0.42944300      -0.18750100
C        3.69000000       2.13042000      10.27326000      -0.37161900       0.21416100      -0.18755100
C        2.46000000       0.00000000      10.29592000       0.00036100      -0.00113800      -0.18685100
C        1.23000000       2.13042000      10.27326000       0.37196100       0.21340200      -0.18751000
C        1.23005000       0.71011000      10.27363000       0.37166300      -0.21521500      -0.19145400
C        0.00005000       2.84053000      10.27362000      -0.00193600       0.43204500      -0.19143000
C        3.69000000       0.71011000      10.27362000      -0.37221800      -0.21471100      -0.19143400
C        2.46000000       2.84053000      10.29624000       0.00147100       0.00109100      -0.18750900
Li      -0.00003000       1.42030000      11.87080000       0.00010300      -0.00009200      -0.02358300
17
Lattice="4.920000076 0.0 0.0 -2.460000038 4.260845053 0.0 0.0 0.0 24.0" Properties=species:S:1:pos:R:3:forces:R:3 stress="-0.012191271390695355 6.443109870649287e-05 -7.24015058602458e-07 6.443109870649287e-05 -0.012113708156788004 6.054263852106761e-07 -7.24015058602458e-07 6.054263852106761e-07 -0.0039308962059721505" free_energy=-150.2586889 energy=-150.25781078 pbc="T T T"
C        0.00000000       0.00000000      13.75543000      -0.00122500      -0.25546100       0.13885800
C        3.69000000       2.13042000      13.75544000      -0.22309700       0.12887000       0.13892300
C        2.46000000       0.00000000      13.72546000      -0.00121400       0.00077300       0.24064200
C        1.23000000       2.13042000      13.75543000       0.22066200       0.12887900       0.13885600
C       -0.00005000       1.42031000      13.82662000       0.00125000      -0.00078300       0.17997300
C       -1.23005000       3.55073000      13.73200000       0.09308000       0.05221600       0.20603000
C        2.45995000       1.42031000      13.73200000       0.00127500      -0.10677000       0.20603000
C        1.22995000       3.55073000      13.73196000      -0.09049700       0.05219700       0.20603100
C        0.00000000       0.00000000      10.25875000      -0.00003600      -0.41847600      -0.17129200
C        3.69000000       2.13042000      10.25874000      -0.36210000       0.20866300      -0.17127200
C        2.46000000       0.00000000      10.28179000       0.00036900      -0.00114400      -0.19389300
C        1.23000000       2.13042000      10.25875000       0.36246400       0.20790900      -0.17128900
C        1.23005000       0.71011000      10.25884000       0.36202800      -0.20965000      -0.17204600
C        0.00005000       2.84053000      10.25883000      -0.00193800       0.42089900      -0.17202500
C        3.69000000       0.71011000      10.25883000      -0.36257600      -0.20913600      -0.17202900
C        2.46000000       2.84053000      10.28209000       0.00147000       0.00108900      -0.19113700
Li      -0.00003000       1.42029000      11.86903000       0.00008400      -0.00007600      -0.04036100
17
Lattice="4.920000076 0.0 0.0 -2.460000038 4.260845053 0.0 0.0 0.0 24.0" Properties=species:S:1:pos:R:3:forces:R:3 stress="-0.013438998997032424 6.420016286883519e-05 -3.9321507493064526e-07 6.420016286883519e-05 -0.013361666698962733 3.120754562941629e-07 -3.9321507493064526e-07 3.120754562941629e-07 -0.000915891532150361" free_energy=-150.41635932 energy=-150.41534793 pbc="T T T"
C        0.00000000       0.00000000      13.82506000      -0.00112700      -0.23640300       0.28861700
C        3.69000000       2.13042000      13.82511000      -0.20648100       0.11928300       0.28824300
C        2.46000000       0.00000000      13.83047000      -0.00110100       0.00070400       0.00738900
C        1.23000000       2.13042000      13.82506000       0.20422300       0.11928100       0.28862300
C       -0.00005000       1.42031000      13.89228000       0.00116600      -0.00073000      -0.20188200
C       -1.23005000       3.55073000      13.82301000       0.09028900       0.05067400       0.03532100
C        2.45995000       1.42031000      13.82301000       0.00120500      -0.10359300       0.03532100
C        1.22995000       3.55073000      13.82296000      -0.08791800       0.05069700       0.03536300
C        0.00000000       0.00000000      10.18075000       0.00000100      -0.36812300      -0.10620500
C        3.69000000       2.13042000      10.18075000      -0.31838900       0.18342000      -0.10611300
C        2.46000000       0.00000000      10.19641000       0.00042000      -0.00118700      -0.08640600
C        1.23000000       2.13042000      10.18075000       0.31886200       0.18268300      -0.10619500
C        1.23005000       0.71011000      10.18045000       0.31803800      -0.18424100      -0.11102500
C        0.00005000       2.84053000      10.18045000      -0.00201300       0.37015500      -0.11101100
C        3.69000000       0.71011000      10.18045000      -0.31865500      -0.18369400      -0.11101800
C        2.46000000       2.84053000      10.19785000       0.00144400       0.00110900      -0.10223500
Li       0.00001000       1.42026000      11.85515000       0.00003500      -0.00003200       0.06321300
17
Lattice="4.920000076 0.0 0.0 -2.460000038 4.260845053 0.0 0.0 0.0 24.0" Properties=species:S:1:pos:R:3:forces:R:3 stress="-0.013177510972203547 6.42750609783458e-05 -3.4952451104946246e-07 6.42750609783458e-05 -0.013100097534515215 3.058339471682796e-07 -3.4952451104946246e-07 3.058339471682796e-07 -0.0015687471452086239" free_energy=-150.3874862 energy=-150.38650239 pbc="T T T"
C        0.00000000       0.00000000      13.81382000      -0.00114300      -0.25549500       0.07556200
C        3.69000000       2.13042000      13.81385000      -0.22301600       0.12883000       0.07547500
C        2.46000000       0.00000000      13.80013000      -0.00112100       0.00071900       0.06179200
C        1.23000000       2.13042000      13.81382000       0.22074100       0.12883600       0.07556400
C       -0.00005000       1.42031000      13.86708000       0.00115900      -0.00072800       0.10317300
C       -1.23005000       3.55073000      13.79762000       0.08820900       0.04946500       0.14122000
C        2.45995000       1.42031000      13.79762000       0.00121600      -0.10118500       0.14122000
C        1.22995000       3.55073000      13.79757000      -0.08579100       0.04947300       0.14131800
C        0.00000000       0.00000000      10.20014000      -0.00000700      -0.37759300      -0.09934400
C        3.69000000       2.13042000      10.20013000      -0.32661300       0.18817000      -0.09930700
C        2.46000000       0.00000000      10.21850000       0.00040900      -0.00117900      -0.09967400
C        1.23000000       2.13042000      10.20014000       0.32706200       0.18742900      -0.09933800
C        1.23005000       0.71011000      10.19980000       0.32637500      -0.18905900      -0.09806000
C        0.00005000       2.84053000      10.19979000      -0.00199500       0.37976800      -0.09802900
C        3.69000000       0.71011000      10.19979000      -0.32697800      -0.18851900      -0.09803800
C        2.46000000       2.84053000      10.21910000       0.00144600       0.00111200      -0.10304100
Li       0.00000000       1.42026000      11.86111000       0.00004900      -0.00004500      -0.02049300
17
Lattice="4.920000076 0.0 0.0 -2.460000038 4.260845053 0.0 0.0 0.0 24.0" Properties=species:S:1:pos:R:3:forces:R:3 stress="-0.01347748414230262 6.425009494184226e-05 -3.62007529301229e-07 6.425009494184226e-05 -0.013400083187632545 3.058339471682796e-07 -3.62007529301229e-07 3.058339471682796e-07 -0.0015588356287167214" free_energy=-150.39924541 energy=-150.39825059 pbc="T T T"
C        0.00000000       0.00000000      13.81973000      -0.00113500      -0.25329000       0.11147600
C        3.69000000       2.13042000      13.81975000      -0.22109700       0.12772300       0.11140700
C        2.46000000       0.00000000      13.80602000      -0.00111500       0.00071700       0.11228200
C        1.23000000       2.13042000      13.81973000       0.21883700       0.12772800       0.11147700
C       -0.00005000       1.42031000      13.87315000       0.00115300      -0.00072300       0.06858200
C       -1.23005000       3.55073000      13.80656000       0.08798900       0.04935300       0.08486800
C        2.45995000       1.42031000      13.80656000       0.00120100      -0.10094000       0.08486900
C        1.22995000       3.55073000      13.80652000      -0.08560100       0.04936200       0.08494700
C        0.00000000       0.00000000      10.19328000      -0.00000400      -0.37362200      -0.08982800
C        3.69000000       2.13042000      10.19327000      -0.32316700       0.18618000      -0.08980100
C        2.46000000       0.00000000      10.21144000       0.00041300      -0.00118200      -0.11303100
C        1.23000000       2.13042000      10.19328000       0.32362500       0.18544000      -0.08982200
C        1.23005000       0.71011000      10.19297000       0.32294100      -0.18707400      -0.08893300
C        0.00005000       2.84053000      10.19297000      -0.00199100       0.37578900      -0.08890700
C        3.69000000       0.71011000      10.19297000      -0.32353800      -0.18653100      -0.08891300
C        2.46000000       2.84053000      10.21190000       0.00144300       0.00111100      -0.11580000
Li       0.00001000       1.42026000      11.85992000       0.00004700      -0.00004200      -0.00487300
17
Lattice="4.920000076 0.0 0.0 -2.460000038 4.260845053 0.0 0.0 0.0 24.0" Properties=species:S:1:pos:R:3:forces:R:3 stress="-0.013456144422601228 6.421888739621284e-05 -3.183169654200462e-07 6.421888739621284e-05 -0.013378787158495027 2.8086791066474663e-07 -3.183169654200462e-07 2.8086791066474663e-07 -0.0013609485818805928" free_energy=-150.40661908 energy=-150.405615 pbc="T T T"
C        0.00000000       0.00000000      13.82542000      -0.00112800      -0.25392900       0.09249700
C        3.69000000       2.13042000      13.82544000      -0.22163800       0.12803600       0.09247800
C        2.46000000       0.00000000      13.81107000      -0.00110700       0.00071200       0.08092900
C        1.23000000       2.13042000      13.82542000       0.21939400       0.12804200       0.09249700
C       -0.00005000       1.42031000      13.87697000       0.00114400      -0.00071800       0.07248100
C       -1.23005000       3.55073000      13.81045000       0.08727000       0.04894200       0.11700100
C        2.45995000       1.42031000      13.81045000       0.00119700      -0.10011300       0.11700100
C        1.22995000       3.55073000      13.81042000      -0.08489000       0.04895000       0.11703100
C        0.00000000       0.00000000      10.18896000      -0.00000200      -0.37032600      -0.10110600
C        3.69000000       2.13042000      10.18895000      -0.32030600       0.18452900      -0.10108400
C        2.46000000       0.00000000      10.20562000       0.00041600      -0.00118200      -0.08564800
C        1.23000000       2.13042000      10.18896000       0.32077100       0.18379000      -0.10110300
C        1.23005000       0.71011000      10.18874000       0.32018000      -0.18547900      -0.10082500
C        0.00005000       2.84053000      10.18874000      -0.00200100       0.37261500      -0.10081500
C        3.69000000       0.71011000      10.18874000      -0.32078800      -0.18493500      -0.10081900
C        2.46000000       2.84053000      10.20585000       0.00144200       0.00110800      -0.08702800
Li       0.00001000       1.42026000      11.85978000       0.00004700      -0.00004100      -0.00348700
17
Lattice="4.920000076 0.0 0.0 -2.460000038 4.260845053 0.0 0.0 0.0 24.0" Properties=species:S:1:pos:R:3:forces:R:3 stress="-0.013470381304917367 6.415647230495402e-05 -2.559018741612136e-07 6.415647230495402e-05 -0.013393092697411556 2.2469432853179729e-07 -2.559018741612136e-07 2.2469432853179729e-07 -0.0008142235899988487" free_energy=-150.42827637 energy=-150.42724404 pbc="T T T"
C        0.00000000       0.00000000      13.84000000      -0.00110700      -0.25475800       0.03578200
C        3.69000000       2.13042000      13.84001000      -0.22233200       0.12843800       0.03579600
C        2.46000000       0.00000000      13.82505000      -0.00108800       0.00070300       0.12186900
C        1.23000000       2.13042000      13.84000000       0.22012300       0.12844200       0.03578200
C       -0.00005000       1.42031000      13.88702000       0.00112300      -0.00070600       0.10505700
C       -1.23005000       3.55073000      13.82522000       0.08569500       0.04805400       0.15016800
C        2.45995000       1.42031000      13.82522000       0.00117600      -0.09830800       0.15016800
C        1.22995000       3.55073000      13.82519000      -0.08335900       0.04806300       0.15016000
C        0.00000000       0.00000000      10.17511000       0.00000400      -0.36120100      -0.10516000
C        3.69000000       2.13042000      10.17511000      -0.31239100       0.17995900      -0.10515700
C        2.46000000       0.00000000      10.19147000       0.00042400      -0.00118700      -0.07785600
C        1.23000000       2.13042000      10.17511000       0.31287200       0.17922300      -0.10516100
C        1.23005000       0.71011000      10.17496000       0.31233500      -0.18094900      -0.10486300
C        0.00005000       2.84053000      10.17497000      -0.00200700       0.36355300      -0.10485600
C        3.69000000       0.71011000      10.17497000      -0.31294700      -0.18039900      -0.10485800
C        2.46000000       2.84053000      10.19144000       0.00143700       0.00111000      -0.07677800
Li       0.00001000       1.42025000      11.85915000       0.00004200      -0.00003700      -0.00009500
17
Lattice="4.920000076 0.0 0.0 -2.460000038 4.260845053 0.0 0.0 0.0 24.0" Properties=species:S:1:pos:R:3:forces:R:3 stress="-0.013043524495798209 6.409405721369518e-05 -2.1845281940591405e-07 6.409405721369518e-05 -0.012966317027911034 1.93486782902381e-07 -2.1845281940591405e-07 1.93486782902381e-07 -0.0001665297049876912" free_energy=-150.44271217 energy=-150.44165535 pbc="T T T"
C        0.00000000       0.00000000      13.85046000      -0.00109100      -0.25424000       0.03472400
C        3.69000000       2.13042000      13.85047000      -0.22186300       0.12816900       0.03475000
C        2.46000000       0.00000000      13.83787000      -0.00107200       0.00069400       0.06652900
C        1.23000000       2.13042000      13.85046000       0.21968600       0.12817200       0.03472500
C       -0.00005000       1.42031000      13.89587000       0.00110800      -0.00069800       0.08177700
C       -1.23005000       3.55073000      13.83767000       0.08528000       0.04783600       0.08051700
C        2.45995000       1.42031000      13.83767000       0.00115600      -0.09784300       0.08051600
C        1.22995000       3.55073000      13.83764000      -0.08299000       0.04784800       0.08048800
C        0.00000000       0.00000000      10.16395000       0.00000600      -0.35376700      -0.04865800
C        3.69000000       2.13042000      10.16396000      -0.30594500       0.17623800      -0.04866600
C        2.46000000       0.00000000      10.17996000       0.00043000      -0.00119000      -0.09811300
C        1.23000000       2.13042000      10.16395000       0.30643500       0.17550500      -0.04866100
C        1.23005000       0.71011000      10.16386000       0.30589200      -0.17723100      -0.04872300
C        0.00005000       2.84053000      10.16386000      -0.00200700       0.35610200      -0.04872200
C        3.69000000       0.71011000      10.16386000      -0.30650100      -0.17667700      -0.04872300
C        2.46000000       2.84053000      10.17978000       0.00143700       0.00111900      -0.09584800
Li       0.00002000       1.42025000      11.85870000       0.00003900      -0.00003500      -0.00791200
17
Lattice="4.920000076 0.0 0.0 -2.460000038 4.260845053 0.0 0.0 0.0 24.0" Properties=species:S:1:pos:R:3:forces:R:3 stress="-0.012444139891421388 6.351359686498804e-05 3.744905475529955e-08 6.351359686498804e-05 -0.012367775027266208 1.8724527377649774e-08 3.744905475529955e-08 1.8724527377649774e-08 0.0030190304472079836" free_energy=-150.48584701 energy=-150.48452262 pbc="T T T"
C        0.00000000       0.00000000      13.92232000      -0.00097400      -0.25282400       0.00152000
C        3.69000000       2.13042000      13.92229000      -0.22047700       0.12737600       0.00173700
C        2.46000000       0.00000000      13.90927000      -0.00095000       0.00062900       0.10639000
C        1.23000000       2.13042000      13.92232000       0.21852400       0.12737300       0.00151900
C       -0.00005000       1.42031000      13.95262000       0.00098300      -0.00062600       0.05512400
C       -1.23005000       3.55073000      13.91225000       0.07940300       0.04455700       0.05635200
C        2.45995000       1.42031000      13.91225000       0.00105200      -0.09112000       0.05635000
C        1.22995000       3.55073000      13.91226000      -0.07733500       0.04457800       0.05611600
C        0.00000000       0.00000000      10.09597000      -0.00001900      -0.31496200      -0.06553900
C        3.69000000       2.13042000      10.09599000      -0.27238700       0.15688600      -0.06560600
C        2.46000000       0.00000000      10.10187000       0.00041900      -0.00116000       0.04105300
C        1.23000000       2.13042000      10.09597000       0.27283700       0.15615700      -0.06555600
C        1.23005000       0.71011000      10.09635000       0.27221400      -0.15781000      -0.06786600
C        0.00005000       2.84053000      10.09637000      -0.00200700       0.31713300      -0.06795400
C        3.69000000       0.71011000      10.09636000      -0.27277700      -0.15723500      -0.06793500
C        2.46000000       2.84053000      10.10041000       0.00147100       0.00106600       0.05229100
Li       0.00006000       1.42022000      11.85514000       0.00002200      -0.00002000      -0.02799500
17
Lattice="4.920000076 0.0 0.0 -2.460000038 4.260845053 0.0 0.0 0.0 24.0" Properties=species:S:1:pos:R:3:forces:R:3 stress="-0.012247338867173163 6.377574024827514e-05 -3.1207545629416294e-08 6.377574024827514e-05 -0.012170580787943051 5.617358213294932e-08 -3.1207545629416294e-08 5.617358213294932e-08 0.0022898037284854135" free_energy=-150.47282248 energy=-150.47162189 pbc="T T T"
C        0.00000000       0.00000000      13.89516000      -0.00102300      -0.25079900       0.02404900
C        3.69000000       2.13042000      13.89516000      -0.21879500       0.12640400       0.02413100
C        2.46000000       0.00000000      13.88598000      -0.00100500       0.00066000       0.06449200
C        1.23000000       2.13042000      13.89516000       0.21674600       0.12640200       0.02404800
C       -0.00005000       1.42031000      13.93378000       0.00102900      -0.00065300       0.03947600
C       -1.23005000       3.55073000      13.88651000       0.08237400       0.04622000       0.02966700
C        2.45995000       1.42031000      13.88651000       0.00110100      -0.09452000       0.02966700
C        1.22995000       3.55073000      13.88650000      -0.08020700       0.04623900       0.02956800
C        0.00000000       0.00000000      10.11947000      -0.00000100      -0.32804700      -0.03560400
C        3.69000000       2.13042000      10.11948000      -0.28368300       0.16339600      -0.03564300
C        2.46000000       0.00000000      10.13151000       0.00043300      -0.00118000      -0.01216900
C        1.23000000       2.13042000      10.11947000       0.28416700       0.16266700      -0.03561300
C        1.23005000       0.71011000      10.11960000       0.28365000      -0.16440100      -0.04002700
C        0.00005000       2.84053000      10.11961000      -0.00201500       0.33038100      -0.04004100
C        3.69000000       0.71011000      10.11961000      -0.28424500      -0.16383300      -0.04003800
C        2.46000000       2.84053000      10.13093000       0.00145000       0.00108700      -0.00924700
Li       0.00004000       1.42023000      11.85554000       0.00002400      -0.00002200      -0.01671500
17
Lattice="4.920000076 0.0 0.0 -2.460000038 4.260845053 0.0 0.0 0.0 24.0" Properties=species:S:1:pos:R:3:forces:R:3 stress="-0.012057409744472537 6.387560439428926e-05 -8.113961863648234e-08 6.387560439428926e-05 -0.011980514352041656 8.113961863648234e-08 -8.113961863648234e-08 8.113961863648234e-08 0.0019118304188401748" free_energy=-150.4668541 energy=-150.46570306 pbc="T T T"
C        0.00000000       0.00000000      13.88197000      -0.00104600      -0.24953500       0.03948200
C        3.69000000       2.13042000      13.88198000      -0.21773500       0.12579100       0.03948800
C        2.46000000       0.00000000      13.87517000      -0.00102500       0.00066900       0.02046700
C        1.23000000       2.13042000      13.88197000       0.21563900       0.12578900       0.03948200
C       -0.00005000       1.42031000      13.92490000       0.00106000      -0.00067000       0.01460300
C       -1.23005000       3.55073000      13.87307000       0.08370700       0.04696700       0.03728300
C        2.45995000       1.42031000      13.87307000       0.00112000      -0.09604600       0.03728300
C        1.22995000       3.55073000      13.87305000      -0.08150300       0.04698800       0.03725900
C        0.00000000       0.00000000      10.13149000       0.00000300      -0.33551800      -0.02870700
C        3.69000000       2.13042000      10.13149000      -0.29014300       0.16712100      -0.02870500
C        2.46000000       0.00000000      10.14583000       0.00043500      -0.00118600      -0.05133200
C        1.23000000       2.13042000      10.13149000       0.29063600       0.16639300      -0.02870500
C        1.23005000       0.71011000      10.13120000       0.29004400      -0.16808800      -0.02587700