17
Lattice="4.920000076 0.0 0.0 -2.460000038 4.260845053 0.0 0.0 0.0 24.0" Properties=species:S:1:pos:R:3:forces:R:3 stress="-0.012204210039113312 6.365715157488335e-05 -2.371773467835638e-07 6.365715157488335e-05 -0.012127976246649772 2.9335092891651315e-07 -2.371773467835638e-07 2.9335092891651315e-07 0.000706208033066313" free_energy=-150.3582991 energy=-150.3568965 pbc="T T T"
C        0.00000000       0.00000000      13.90000000      -0.00097600      -0.28007100      -0.02780100
C        3.69000000       2.13042000      13.90000000      -0.24410300       0.14103000      -0.02777800
C        2.46000000       0.00000000      13.90000000      -0.00097300       0.00066100       0.04533600
C        1.23000000       2.13042000      13.90000000       0.24214100       0.14102500      -0.02780400
C       -0.00005000       1.42031000      13.90000000       0.00103800      -0.00068200       1.35098400
C       -1.23005000       3.55073000      13.90000000       0.09318500       0.05251600      -0.02176300
C        2.45995000       1.42031000      13.90000000       0.00104400      -0.10708100      -0.02176300
C        1.22995000       3.55073000      13.90000000      -0.09107400       0.05250300      -0.02175500
C        0.00000000       0.00000000      10.10000000      -0.00002100      -0.25066000      -0.00709000
C        3.69000000       2.13042000      10.10000000      -0.21685000       0.12486400      -0.00708300
C        2.46000000       0.00000000      10.10000000       0.00035500      -0.00106200       0.09045500
C        1.23000000       2.13042000      10.10000000       0.21721000       0.12408300      -0.00712100
C        1.23005000       0.71011000      10.10000000       0.21806800      -0.12660600      -0.01721100
C        0.00005000       2.84053000      10.10000000      -0.00196300       0.25454800      -0.01724400
C        3.69000000       0.71011000      10.10000000      -0.21858800      -0.12606200      -0.01725700
C        2.46000000       2.84053000      10.10000000       0.00147000       0.00102600       0.08728000
Li      -0.00005000       1.42031000      12.00000000       0.00003700      -0.00003200      -1.35238400
17
Lattice="4.920000076 0.0 0.0 -2.460000038 4.260845053 0.0 0.0 0.0 24.0" Properties=species:S:1:pos:R:3:forces:R:3 stress="-0.012323553935109324 6.350735535586215e-05 -4.805962026930109e-07 6.350735535586215e-05 -0.012247357591700543 4.4938865706359457e-07 -4.805962026930109e-07 4.4938865706359457e-07 0.002869153088568149" free_energy=-150.45508608 energy=-150.45373378 pbc="T T T"
C        0.00000000       0.00000000      13.89866000      -0.00098000      -0.23150300       0.24836500
C        3.69000000       2.13042000      13.89866000      -0.20203600       0.11674000       0.24829600
C        2.46000000       0.00000000      13.90219000      -0.00097200       0.00065300       0.08058400
C        1.23000000       2.13042000      13.89866000       0.20007300       0.11673800       0.24836200
C       -0.00005000       1.42031000      13.96518000       0.00103600      -0.00068900      -0.13876000
C       -1.23005000       3.55073000      13.89895000       0.09648500       0.05443100      -0.05791200
C        2.45995000       1.42031000      13.89895000       0.00103900      -0.11087200      -0.05791200
C        1.22995000       3.55073000      13.89895000      -0.09437500       0.05441300      -0.05821800
C        0.00000000       0.00000000      10.09966000      -0.00000300      -0.27745700      -0.02312800
C        3.69000000       2.13042000      10.09966000      -0.24000600       0.13821100      -0.02316700
C        2.46000000       0.00000000      10.10436000       0.00037700      -0.00109700       0.03974300
C        1.23000000       2.13042000      10.09966000       0.24040700       0.13743400      -0.02314100
C        1.23005000       0.71011000      10.09917000       0.24092300      -0.13978000      -0.01915100
C        0.00005000       2.84053000      10.09917000      -0.00197800       0.28100100      -0.01916200
C        3.69000000       0.71011000      10.09917000      -0.24148400      -0.13924200      -0.01916100
C        2.46000000       2.84053000      10.10421000       0.00145000       0.00105700       0.04880900
Li      -0.00005000       1.42031000      11.93476000       0.00004500      -0.00004000      -0.47444700
17
Lattice="4.920000076 0.0 0.0 -2.460000038 4.260845053 0.0 0.0 0.0 24.0" Properties=species:S:1:pos:R:3:forces:R:3 stress="-0.012366938665043339 7.330028317437298e-05 4.294158278607682e-06 7.330028317437298e-05 -0.01227942646558933 -2.3280829039544555e-06 4.294158278607682e-06 -2.3280829039544555e-06 0.0028655517378025144" free_energy=-150.46991465 energy=-150.46854091 pbc="T T T"
C        0.00000000       0.00000000      13.91063000      -0.00153400      -0.24642300       0.01890200
C        3.69000000       2.13042000      13.91063000      -0.21578800       0.12467600       0.01895800
C        2.46000000       0.00000000      13.90607000      -0.00152600       0.00097300      -0.04321600
C        1.23000000       2.13042000      13.91063000       0.21271100       0.12467100       0.01890100
C       -0.00005000       1.42031000      13.95849000       0.01014300      -0.00594400       0.04410600
C       -1.23005000       3.55073000      13.89616000       0.08970000       0.05119400       0.13228500
C        2.45995000       1.42031000      13.89616000       0.00045200      -0.10337400       0.13228300
C        1.22995000       3.55073000      13.89614000      -0.08876100       0.05117400       0.13216500
C        0.00000000       0.00000000      10.09854000      -0.00057700      -0.28748200      -0.02075900
C        3.69000000       2.13042000      10.09854000      -0.24954400       0.14371500      -0.02079900
C        2.46000000       0.00000000      10.10628000      -0.00019700      -0.00077000       0.01294900
C        1.23000000       2.13042000      10.09854000       0.24879900       0.14293900      -0.02076600
C        1.23005000       0.71011000      10.09825000       0.24902700      -0.14445500      -0.02018100
C        0.00005000       2.84053000      10.09824000      -0.00254400       0.29134800      -0.02017800
C        3.69000000       0.71011000      10.09824000      -0.25072400      -0.14391600      -0.02017600
C        2.46000000       2.84053000      10.10656000       0.00088200       0.00138700       0.01551100
Li      -0.00005000       1.42031000      11.91189000      -0.00052100       0.00028700      -0.35998600
17
Lattice="4.920000076 0.0 0.0 -2.460000038 4.260845053 0.0 0.0 0.0 24.0" Properties=species:S:1:pos:R:3:forces:R:3 stress="-0.01246219657732257 6.34511817737292e-05 -5.118037483224272e-07 6.34511817737292e-05 -0.012386012716932038 4.4938865706359457e-07 -5.118037483224272e-07 4.4938865706359457e-07 0.0030280868769496407" free_energy=-150.47826843 energy=-150.47691735 pbc="T T T"
C        0.00000000       0.00000000      13.91306000      -0.00096700      -0.24468400       0.05791700
C        3.69000000       2.13042000      13.91306000      -0.21343600       0.12331500       0.05800300
C        2.46000000       0.00000000      13.90438000      -0.00096800       0.00064900       0.06112300
C        1.23000000       2.13042000      13.91306000       0.21148600       0.12330600       0.05791700
C       -0.00005000       1.42031000      13.95988000       0.00104600      -0.00068700      -0.04616100
C       -1.23005000       3.55073000      13.90246000       0.08683200       0.04888300       0.06689900
C        2.45995000       1.42031000      13.90246000       0.00102200      -0.09973100       0.06689800
C        1.22995000       3.55073000      13.90244000      -0.08473700       0.04885400       0.06687700
C        0.00000000       0.00000000      10.09736000       0.00000300      -0.29733600      -0.02496800
C        3.69000000       2.13042000      10.09736000      -0.25721500       0.14813500      -0.02501500
C        2.46000000       0.00000000      10.10717000       0.00036700      -0.00110500      -0.00705400
C        1.23000000       2.13042000      10.09736000       0.25761400       0.14735000      -0.02497100
C        1.23005000       0.71011000      10.09712000       0.25751500      -0.14934600      -0.02617800
C        0.00005000       2.84053000      10.09712000      -0.00197300       0.30019300      -0.02620900
C        3.69000000       0.71011000      10.09712000      -0.25809000      -0.14881900      -0.02620600
C        2.46000000       2.84053000      10.10763000       0.00143800       0.00107500      -0.00863500
Li      -0.00007000       1.42032000      11.89098000       0.00006100      -0.00005000      -0.22024000
17
Lattice="4.920000076 0.0 0.0 -2.460000038 4.260845053 0.0 0.0 0.0 24.0" Properties=species:S:1:pos:R:3:forces:R:3 stress="-0.012429266375174408 6.34886308284845e-05 -5.492528030777268e-07 6.34886308284845e-05 -0.012352970167619614 4.556301661894778e-07 -5.492528030777268e-07 4.556301661894778e-07 0.003068463199484979" free_energy=-150.4862818 energy=-150.48495184 pbc="T T T"
C        0.00000000       0.00000000      13.92043000      -0.00097200      -0.25023800       0.02815000
C        3.69000000       2.13042000      13.92044000      -0.21825600       0.12609300       0.02816700
C        2.46000000       0.00000000      13.91014000      -0.00097400       0.00064800       0.09126100
C        1.23000000       2.13042000      13.92043000       0.21628900       0.12607900       0.02815100
C       -0.00005000       1.42031000      13.95537000       0.00106100      -0.00068700       0.01013100
C       -1.23005000       3.55073000      13.91141000       0.08083900       0.04542000       0.04921900
C        2.45995000       1.42031000      13.91141000       0.00102900      -0.09280400       0.04921900
C        1.22995000       3.55073000      13.91138000      -0.07873600       0.04539400       0.04928800
C        0.00000000       0.00000000      10.09434000       0.00000800      -0.31232200      -0.03601200
C        3.69000000       2.13042000      10.09433000      -0.27017700       0.15560700      -0.03603000
C        2.46000000       0.00000000      10.10688000       0.00037100      -0.00112100      -0.03703600
C        1.23000000       2.13042000      10.09434000       0.27058300       0.15482100      -0.03601000
C        1.23005000       0.71011000      10.09401000       0.26996300      -0.15652000      -0.03319300
C        0.00005000       2.84053000      10.09400000      -0.00197400       0.31459200      -0.03321200
C        3.69000000       0.71011000      10.09400000      -0.27055100      -0.15599700      -0.03321100
C        2.46000000       2.84053000      10.10728000       0.00143300       0.00108900      -0.03548300
Li      -0.00007000       1.42032000      11.85980000       0.00006400      -0.00005200      -0.05340000
17
Lattice="4.920000076 0.0 0.0 -2.460000038 4.260845053 0.0 0.0 0.0 24.0" Properties=species:S:1:pos:R:3:forces:R:3 stress="-0.012454332275823956 6.347614781023274e-05 -5.554943122036099e-07 6.347614781023274e-05 -0.012378042309778285 4.556301661894778e-07 -5.554943122036099e-07 4.556301661894778e-07 0.002960734751972234" free_energy=-150.48849517 energy=-150.48716296 pbc="T T T"
C        0.00000000       0.00000000      13.92283000      -0.00097100      -0.25047900       0.03061000
C        3.69000000       2.13042000      13.92285000      -0.21846300       0.12621200       0.03057900
C        2.46000000       0.00000000      13.91588000      -0.00097000       0.00064200       0.06961100
C        1.23000000       2.13042000      13.92283000       0.21649800       0.12619700       0.03061000
C       -0.00005000       1.42031000      13.95561000       0.00105900      -0.00068300       0.01099700
C       -1.23005000       3.55073000      13.91530000       0.07989600       0.04487500       0.04730300
C        2.45995000       1.42031000      13.91530000       0.00102900      -0.09171500       0.04730300
C        1.22995000       3.55073000      13.91528000      -0.07779800       0.04485300       0.04734600
C        0.00000000       0.00000000      10.09194000       0.00000600      -0.31472900      -0.03226500
C        3.69000000       2.13042000      10.09193000      -0.27225800       0.15680600      -0.03227000
C        2.46000000       0.00000000      10.10475000       0.00037200      -0.00112400      -0.04714300
C        1.23000000       2.13042000      10.09194000       0.27266400       0.15602300      -0.03226300
C        1.23005000       0.71011000      10.09176000       0.27193100      -0.15765300      -0.03313600
C        0.00005000       2.84053000      10.09175000      -0.00197200       0.31686400      -0.03313800
C        3.69000000       0.71011000      10.09175000      -0.27251800      -0.15713000      -0.03313800
C        2.46000000       2.84053000      10.10523000       0.00143400       0.00109100      -0.04915800
Li      -0.00007000       1.42032000      11.85307000       0.00006200      -0.00005000      -0.02184700
17
Lattice="4.920000076 0.0 0.0 -2.460000038 4.260845053 0.0 0.0 0.0 24.0" Properties=species:S:1:pos:R:3:forces:R:3 stress="-0.012343863805804949 6.343869875547743e-05 -5.242867665741937e-07 6.343869875547743e-05 -0.012267630013341411 4.369056388118281e-07 -5.242867665741937e-07 4.369056388118281e-07 0.0031635089004539295" free_energy=-150.49137727 energy=-150.4900302 pbc="T T T"
C        0.00000000       0.00000000      13.92641000      -0.00096300      -0.25133600       0.03392000
C        3.69000000       2.13042000      13.92642000      -0.21919600       0.12663300       0.03388400
C        2.46000000       0.00000000      13.92364000      -0.00096400       0.00063600       0.05145700
C        1.23000000       2.13042000      13.92641000       0.21724300       0.12661800       0.03392100
C       -0.00005000       1.42031000      13.95670000       0.00105100      -0.00067700       0.02926100
C       -1.23005000       3.55073000      13.92096000       0.07932300       0.04455200       0.04427300
C        2.45995000       1.42031000      13.92096000       0.00102300      -0.09105600       0.04427200
C        1.22995000       3.55073000      13.92094000      -0.07724200       0.04453200       0.04429200
C        0.00000000       0.00000000      10.08830000       0.00000300      -0.31496300      -0.04197000
C        3.69000000       2.13042000      10.08829000      -0.27246100       0.15692400      -0.04195600
C        2.46000000       0.00000000      10.09976000       0.00037200      -0.00112300      -0.04001200
C        1.23000000       2.13042000      10.08830000       0.27286400       0.15614200      -0.04196800
C        1.23005000       0.71011000      10.08805000       0.27204200      -0.15771700      -0.03975000
C        0.00005000       2.84053000      10.08804000      -0.00197200       0.31698400      -0.03974600
C        3.69000000       0.71011000      10.08804000      -0.27262100      -0.15719100      -0.03974700
C        2.46000000       2.84053000      10.10006000       0.00143900       0.00108800      -0.03877800
Li      -0.00007000       1.42031000      11.84874000       0.00005800      -0.00004700       0.00864700
17
Lattice="4.920000076 0.0 0.0 -2.460000038 4.260845053 0.0 0.0 0.0 24.0" Properties=species:S:1:pos:R:3:forces:R:3 stress="-0.012343283345456242 6.343245724635155e-05 -5.180452574483105e-07 6.343245724635155e-05 -0.012267062036010955 4.3066412968594477e-07 -5.180452574483105e-07 4.3066412968594477e-07 0.0032055704304532564" free_energy=-150.49202969 energy=-150.49067833 pbc="T T T"
C        0.00000000       0.00000000      13.92717000      -0.00096100      -0.25127900       0.03730200
C        3.69000000       2.13042000      13.92717000      -0.21914400       0.12660300       0.03727100
C        2.46000000       0.00000000      13.92512000      -0.00096300       0.00063500       0.04903100
C        1.23000000       2.13042000      13.92717000       0.21719600       0.12658800       0.03730200
C       -0.00005000       1.42031000      13.95734000       0.00104800      -0.00067500       0.03049000
C       -1.23005000       3.55073000      13.92205000       0.07938500       0.04458900       0.04439900
C        2.45995000       1.42031000      13.92205000       0.00102200      -0.09112900       0.04440000
C        1.22995000       3.55073000      13.92203000      -0.07730700       0.04457000       0.04441500
C        0.00000000       0.00000000      10.08733000       0.00000300      -0.31428000      -0.04287300
C        3.69000000       2.13042000      10.08732000      -0.27187000       0.15658400      -0.04285800
C        2.46000000       0.00000000      10.09861000       0.00037200      -0.00112300      -0.03939400
C        1.23000000       2.13042000      10.08733000       0.27227300       0.15580300      -0.04287200
C        1.23005000       0.71011000      10.08711000       0.27145300      -0.15737800      -0.04110100
C        0.00005000       2.84053000      10.08710000      -0.00197300       0.31630100      -0.04109800
C        3.69000000       0.71011000      10.08710000      -0.27203100      -0.15685000      -0.04110000
C        2.46000000       2.84053000      10.09890000       0.00144100       0.00108600      -0.03850400
Li      -0.00006000       1.42031000      11.84910000       0.00005700      -0.00004700       0.00519000
17
Lattice="4.920000076 0.0 0.0 -2.460000038 4.260845053 0.0 0.0 0.0 24.0" Properties=species:S:1:pos:R:3:forces:R:3 stress="-0.012464299965897992 6.35260798832398e-05 -5.804603487071431e-07 6.35260798832398e-05 -0.012387935101742811 4.743546935671276e-07 -5.804603487071431e-07 4.743546935671276e-07 0.0030497261890890773" free_energy=-150.48697469 energy=-150.4856663 pbc="T T T"
C        0.00000000       0.00000000      13.92045000      -0.00097800      -0.25109000       0.03394400
C        3.69000000       2.13042000      13.92046000      -0.21900600       0.12652400       0.03388500
C        2.46000000       0.00000000      13.91451000      -0.00098100       0.00064800       0.06796000
C        1.23000000       2.13042000      13.92045000       0.21702300       0.12650800       0.03394200
C       -0.00005000       1.42031000      13.95231000       0.00107100      -0.00068900       0.01296500
C       -1.23005000       3.55073000      13.91375000       0.07938000       0.04456900       0.04158500
C        2.45995000       1.42031000      13.91375000       0.00103800      -0.09111400       0.04158800
C        1.22995000       3.55073000      13.91373000      -0.07726200       0.04454500       0.04163200
C        0.00000000       0.00000000      10.09475000       0.00001100      -0.31916600      -0.04309000
C        3.69000000       2.13042000      10.09474000      -0.27609500       0.15901800      -0.04307800
C        2.46000000       0.00000000      10.10725000       0.00037300      -0.00112900      -0.03413700
C        1.23000000       2.13042000      10.09475000       0.27650500       0.15823100      -0.04309100
C        1.23005000       0.71011000      10.09456000       0.27568100      -0.15981500      -0.04374900
C        0.00005000       2.84053000      10.09455000      -0.00197700       0.32121200      -0.04376800
C        3.69000000       0.71011000      10.09455000      -0.27627900      -0.15929500      -0.04377000
C        2.46000000       2.84053000      10.10776000       0.00143000       0.00109700      -0.03645700
Li      -0.00008000       1.42032000      11.84769000       0.00006500      -0.00005200       0.02363900
17
Lattice="4.920000076 0.0 0.0 -2.460000038 4.260845053 0.0 0.0 0.0 24.0" Properties=species:S:1:pos:R:3:forces:R:3 stress="-0.01233769095327945 6.34137327189739e-05 -5.180452574483105e-07 6.34137327189739e-05 -0.012261482126852416 4.2442262056006164e-07 -5.180452574483105e-07 4.2442262056006164e-07 0.003244966836055832" free_energy=-150.49247039 energy=-150.49111382 pbc="T T T"
C        0.00000000       0.00000000      13.92780000      -0.00095900      -0.25133000       0.03939200
C        3.69000000       2.13042000      13.92780000      -0.21918500       0.12662700       0.03936700
C        2.46000000       0.00000000      13.92584000      -0.00096100       0.00063400       0.03855900
C        1.23000000       2.13042000      13.92779000       0.21724100       0.12661300       0.03939200
C       -0.00005000       1.42031000      13.95781000       0.00104600      -0.00067300       0.03311200
C       -1.23005000       3.55073000      13.92276000       0.07935600       0.04457300       0.04580700
C        2.45995000       1.42031000      13.92275000       0.00102100      -0.09109600       0.04580700
C        1.22995000       3.55073000      13.92274000      -0.07728100       0.04455400       0.04582600
C        0.00000000       0.00000000      10.08653000       0.00000100      -0.31383900      -0.04046300
C        3.69000000       2.13042000      10.08652000      -0.27149100       0.15636600      -0.04045400
C        2.46000000       0.00000000      10.09822000       0.00037000      -0.00112200      -0.04355100
C        1.23000000       2.13042000      10.08652000       0.27189000       0.15558400      -0.04046200
C        1.23005000       0.71011000      10.08637000       0.27108200      -0.15716400      -0.04060500
C        0.00005000       2.84053000      10.08636000      -0.00197300       0.31586900      -0.04060100
C        3.69000000       0.71011000      10.08636000      -0.27165700      -0.15663500      -0.04060300
C        2.46000000       2.84053000      10.09857000       0.00144300       0.00108500      -0.04448000
Li      -0.00006000       1.42031000      11.84926000       0.00005700      -0.00004600       0.00395900
17
Lattice="4.920000076 0.0 0.0 -2.460000038 4.260845053 0.0 0.0 0.0 24.0" Properties=species:S:1:pos:R:3:forces:R:3 stress="-0.012343420658657012 6.346366479198097e-05 -5.242867665741937e-07 6.346366479198097e-05 -0.012267136934120465 4.3066412968594477e-07 -5.242867665741937e-07 4.3066412968594477e-07 0.0032009704382274804" free_energy=-150.4917139 energy=-150.49037353 pbc="T T T"
C        0.00000000       0.00000000      13.92688000      -0.00096600      -0.25131100       0.03613000
C        3.69000000       2.13042000      13.92688000      -0.21917900       0.12662300       0.03610300
C        2.46000000       0.00000000      13.92402000      -0.00096700       0.00063800       0.05537100
C        1.23000000       2.13042000      13.92688000       0.21722000       0.12660800       0.03612900
C       -0.00005000       1.42031000      13.95701000       0.00105400      -0.00067700       0.03236400
C       -1.23005000       3.55073000      13.92155000       0.07919100       0.04447200       0.04345700
C        2.45995000       1.42031000      13.92155000       0.00102700      -0.09090200       0.04345800
C        1.22995000       3.55073000      13.92153000      -0.07710400       0.04445300       0.04348000
C        0.00000000       0.00000000      10.08758000       0.00000400      -0.31447800      -0.03946200
C        3.69000000       2.13042000      10.08756000      -0.27203800       0.15667900      -0.03945200
C        2.46000000       0.00000000      10.09963000       0.00037300      -0.00112600      -0.04687800
C        1.23000000       2.13042000      10.08757000       0.27244300       0.15589700      -0.03946100
C        1.23005000       0.71011000      10.08739000       0.27161100      -0.15746700      -0.03884700
C        0.00005000       2.84053000      10.08738000      -0.00197400       0.31649000      -0.03884300
C        3.69000000       0.71011000      10.08738000      -0.27219200      -0.15694000      -0.03884500
C        2.46000000       2.84053000      10.09997000       0.00143900       0.00109000      -0.04715100
Li      -0.00007000       1.42031000      11.84922000       0.00005800      -0.00004700       0.00244700
17
Lattice="4.920000076 0.0 0.0 -2.460000038 4.260845053 0.0 0.0 0.0 24.0" Properties=species:S:1:pos:R:3:forces:R:3 stress="-0.012343888771841453 6.343245724635155e-05 -5.30528275700077e-07 6.343245724635155e-05 -0.012267654979377913 4.369056388118281e-07 -5.30528275700077e-07 4.369056388118281e-07 0.003201657004231328" free_energy=-150.49167205 energy=-150.4903225 pbc="T T T"
C        0.00000000       0.00000000      13.92682000      -0.00096200      -0.25138200       0.03528200
C        3.69000000       2.13042000      13.92683000      -0.21923500       0.12665600       0.03525600
C        2.46000000       0.00000000      13.92393000      -0.00096400       0.00063600       0.05524600
C        1.23000000       2.13042000      13.92682000       0.21728500       0.12664100       0.03528200
C       -0.00005000       1.42031000      13.95695000       0.00105000      -0.00067600       0.03156400
C       -1.23005000       3.55073000      13.92149000       0.07930600       0.04454200       0.04277100
C        2.45995000       1.42031000      13.92149000       0.00102200      -0.09103700       0.04277200
C        1.22995000       3.55073000      13.92147000      -0.07722600       0.04452200       0.04279500
C        0.00000000       0.00000000      10.08764000       0.00000300      -0.31449400      -0.03899700
C        3.69000000       2.13042000      10.08762000      -0.27205600       0.15669100      -0.03898800
C        2.46000000       0.00000000      10.09971000       0.00037200      -0.00112400      -0.04641000
C        1.23000000       2.13042000      10.08763000       0.27245900       0.15590900      -0.03899600
C        1.23005000       0.71011000      10.08745000       0.27164400      -0.15748800      -0.03841200
C        0.00005000       2.84053000      10.08744000      -0.00197300       0.31652300      -0.03840700
C        3.69000000       0.71011000      10.08744000      -0.27222300      -0.15696100      -0.03840900
C        2.46000000       2.84053000      10.10004000       0.00144000       0.00108700      -0.04667800
Li      -0.00007000       1.42031000      11.84922000       0.00005800      -0.00004700       0.00432500
17
Lattice="4.920000076 0.0 0.0 -2.460000038 4.260845053 0.0 0.0 0.0 24.0" Properties=species:S:1:pos:R:3:forces:R:3 stress="-0.012222216792941484 6.327017800907858e-05 -4.4314714793771134e-07 6.327017800907858e-05 -0.012146245143861232 3.6824903842711227e-07 -4.4314714793771134e-07 3.6824903842711227e-07 0.0036446855634956472" free_energy=-150.50039145 energy=-150.49895953 pbc="T T T"
C        0.00000000       0.00000000      13.93753000      -0.00093200      -0.25165300       0.07717800
C        3.69000000       2.13042000      13.93753000      -0.21942500       0.12676800       0.07717700
C        2.46000000       0.00000000      13.93956000      -0.00093100       0.00061600       0.03210800
C        1.23000000       2.13042000      13.93753000       0.21753700       0.12675400       0.07716300
C       -0.00005000       1.42031000      13.96571000       0.00101300      -0.00065200       0.05211800
C       -1.23005000       3.55073000      13.93533000       0.07970200       0.04480600       0.03623400
C        2.45995000       1.42031000      13.93533000       0.00098800      -0.09151500       0.03624500
C        1.22995000       3.55073000      13.93532000      -0.07770200       0.04479300       0.03620800
C        0.00000000       0.00000000      10.07523000      -0.00001400      -0.30493800      -0.05090500
C        3.69000000       2.13042000      10.07522000      -0.26379800       0.15193500      -0.05086600
C        2.46000000       0.00000000      10.08506000       0.00036300      -0.00110900      -0.03418400
C        1.23000000       2.13042000      10.07523000       0.26418100       0.15116100      -0.05090200
C        1.23005000       0.71011000      10.07505000       0.26343700      -0.15275700      -0.04918900
C        0.00005000       2.84053000      10.07504000      -0.00196100       0.30698500      -0.04922500
C        3.69000000       0.71011000      10.07504000      -0.26397100      -0.15221600      -0.04922400
C        2.46000000       2.84053000      10.08523000       0.00146500       0.00106100      -0.03204800
Li      -0.00004000       1.42030000      11.85505000       0.00004900      -0.00003900      -0.05788900
17
Lattice="4.920000076 0.0 0.0 -2.460000038 4.260845053 0.0 0.0 0.0 24.0" Properties=species:S:1:pos:R:3:forces:R:3 stress="-0.012360747087990462 6.348238931935861e-05 -5.554943122036099e-07 6.348238931935861e-05 -0.012284457121944793 4.556301661894778e-07 -5.554943122036099e-07 4.556301661894778e-07 0.0030517234720093605" free_energy=-150.48988804 energy=-150.48855715 pbc="T T T"
C        0.00000000       0.00000000      13.92395000      -0.00097000      -0.25113300       0.04628400
C        3.69000000       2.13042000      13.92396000      -0.21902900       0.12653600       0.04624800
C        2.46000000       0.00000000      13.92138000      -0.00097100       0.00064100       0.04689600
C        1.23000000       2.13042000      13.92395000       0.21706600       0.12652200       0.04628700
C       -0.00005000       1.42031000      13.95498000       0.00106100      -0.00068300       0.01961800
C       -1.23005000       3.55073000      13.91870000       0.07950100       0.04465000       0.03617600
C        2.45995000       1.42031000      13.91870000       0.00102800      -0.09125800       0.03617800
C        1.22995000       3.55073000      13.91867000      -0.07740700       0.04462900       0.03620800
C        0.00000000       0.00000000      10.09042000       0.00000700      -0.31643800      -0.03994900
C        3.69000000       2.13042000      10.09040000      -0.27373500       0.15765800      -0.03994000
C        2.46000000       0.00000000      10.10252000       0.00037300      -0.00112700      -0.04238200
C        1.23000000       2.13042000      10.09041000       0.27414100       0.15687300      -0.03994800
C        1.23005000       0.71011000      10.09024000       0.27331100      -0.15844900      -0.03974700