17
Lattice="4.920000076 0.0 0.0 -2.460000038 4.260845053 0.0 0.0 0.0 24.0" Properties=species:S:1:pos:R:3:forces:R:3 stress="-0.012064606204494682 5.520614821843742e-05 2.8068066539097013e-05 5.520614821843742e-05 -0.011991018811900516 -2.695707791468979e-05 2.8068066539097013e-05 -2.695707791468979e-05 -0.002730217095425988" free_energy=-150.29978396 energy=-150.29863239 pbc="T T T"
C        0.00000000       0.00000000      13.85000000      -0.00143000      -0.28822000      -0.01360800
C        3.69000000       2.13042000      13.85000000      -0.25146200       0.14484700      -0.01355400
C        2.46000000       0.00000000      13.85000000      -0.00143200       0.00049400       0.03150300
C        1.23000000       2.13042000      13.85000000       0.24859600       0.14484300      -0.01361200
C       -0.00005000       1.42031000      13.85000000       0.00390800      -0.00277000       1.72647500
C       -1.23005000       3.55073000      13.85000000       0.09934500       0.05232600      -0.02492500
C        2.45995000       1.42031000      13.85000000       0.00391500      -0.11296700      -0.02492500
C        1.22995000       3.55073000      13.85000000      -0.09149200       0.05231200      -0.02492200
C        0.00000000       0.00000000      10.15000000      -0.00034900      -0.26930400      -0.02451400
C        3.69000000       2.13042000      10.15000000      -0.23308400       0.13377900      -0.02452100
C        2.46000000       0.00000000      10.15000000       0.00003100      -0.00133500       0.10833300
C        1.23000000       2.13042000      10.15000000       0.23279200       0.13300100      -0.02454000
C        1.23005000       0.71011000      10.15000000       0.23064100      -0.13426500      -0.03929900
C        0.00005000       2.84053000      10.15000000      -0.00554500       0.27489300      -0.03936100
C        3.69000000       0.71011000      10.15000000      -0.23516800      -0.13189500      -0.03936500
C        2.46000000       2.84053000      10.15000000       0.00105600       0.00451800       0.09878100
Li      -0.00005000       1.42031000      12.00000000      -0.00032200      -0.00025700      -1.65794500
17
Lattice="4.920000076 0.0 0.0 -2.460000038 4.260845053 0.0 0.0 0.0 24.0" Properties=species:S:1:pos:R:3:forces:R:3 stress="-0.012094446859625529 6.388184590341515e-05 -7.177735494765747e-07 6.388184590341515e-05 -0.012017595157758527 5.118037483224272e-07 -7.177735494765747e-07 5.118037483224272e-07 0.0005131144652388627" free_energy=-150.43365669 energy=-150.43254144 pbc="T T T"
C        0.00000000       0.00000000      13.84934000      -0.00106500      -0.22037900       0.33664800
C        3.69000000       2.13042000      13.84935000      -0.19251400       0.11123800       0.33656600
C        2.46000000       0.00000000      13.85152000      -0.00106000       0.00069500       0.09028400
C        1.23000000       2.13042000      13.84934000       0.19038800       0.11124000       0.33663900
C       -0.00005000       1.42031000      13.93329000       0.00111700      -0.00071700      -0.27830000
C       -1.23005000       3.55073000      13.84880000       0.09874800       0.05565800      -0.06185000
C        2.45995000       1.42031000      13.84880000       0.00110500      -0.11342700      -0.06184800
C        1.22995000       3.55073000      13.84880000      -0.09648600       0.05562800      -0.06223900
C        0.00000000       0.00000000      10.14882000       0.00003600      -0.30744700      -0.05591300
C        3.69000000       2.13042000      10.14882000      -0.26589100       0.15313400      -0.05596200
C        2.46000000       0.00000000      10.15523000       0.00040900      -0.00115500       0.02123000
C        1.23000000       2.13042000      10.14882000       0.26635900       0.15235100      -0.05590900
C        1.23005000       0.71011000      10.14810000       0.26677200      -0.15466700      -0.04457400
C        0.00005000       2.84053000      10.14810000      -0.00199200       0.31094100      -0.04459900
C        3.69000000       0.71011000      10.14810000      -0.26740600      -0.15414600      -0.04460900
C        2.46000000       2.84053000      10.15477000       0.00141000       0.00110600       0.03705700
Li      -0.00006000       1.42030000      11.92002000       0.00006900      -0.00005000      -0.39262100
17
Lattice="4.920000076 0.0 0.0 -2.460000038 4.260845053 0.0 0.0 0.0 24.0" Properties=species:S:1:pos:R:3:forces:R:3 stress="-0.012107023500514184 6.38631213760375e-05 -5.30528275700077e-07 6.38631213760375e-05 -0.012030196764683686 3.7449054755299545e-07 -5.30528275700077e-07 3.7449054755299545e-07 0.000861253361262379" free_energy=-150.44869177 energy=-150.44755053 pbc="T T T"
C        0.00000000       0.00000000      13.86443000      -0.00104900      -0.24818800      -0.00474400
C        3.69000000       2.13042000      13.86442000      -0.21657700       0.12512800      -0.00467200
C        2.46000000       0.00000000      13.85556000      -0.00104500       0.00068700      -0.07056900
C        1.23000000       2.13042000      13.86442000       0.21447500       0.12512500      -0.00474800
C       -0.00005000       1.42031000      13.92082000       0.00111200      -0.00071100       0.06340100
C       -1.23005000       3.55073000      13.84603000       0.09209000       0.05183300       0.17165400
C        2.45995000       1.42031000      13.84603000       0.00109000      -0.10574900       0.17165200
C        1.22995000       3.55073000      13.84601000      -0.08985600       0.05180200       0.17151400
C        0.00000000       0.00000000      10.14631000       0.00002800      -0.31569300      -0.02927200
C        3.69000000       2.13042000      10.14631000      -0.27303900       0.15725800      -0.02931700
C        2.46000000       0.00000000      10.15618000       0.00040400      -0.00115300      -0.00375700
C        1.23000000       2.13042000      10.14631000       0.27349600       0.15647800      -0.02927000
C        1.23005000       0.71011000      10.14611000       0.27375200      -0.15869400      -0.03104700
C        0.00005000       2.84053000      10.14610000      -0.00198800       0.31899700      -0.03104900
C        3.69000000       0.71011000      10.14610000      -0.27437900      -0.15817400      -0.03105900
C        2.46000000       2.84053000      10.15643000       0.00141300       0.00110300      -0.00330900
Li      -0.00006000       1.42030000      11.90243000       0.00007200      -0.00005000      -0.30541000
17
Lattice="4.920000076 0.0 0.0 -2.460000038 4.260845053 0.0 0.0 0.0 24.0" Properties=species:S:1:pos:R:3:forces:R:3 stress="-0.012157585965942963 6.388808741254104e-05 -5.617358213294933e-07 6.388808741254104e-05 -0.012080703056530332 3.86973565804762e-07 -5.617358213294933e-07 3.86973565804762e-07 0.0010975881043139486" free_energy=-150.45539937 energy=-150.45427087 pbc="T T T"
C        0.00000000       0.00000000      13.86555000      -0.00105000      -0.24436000       0.06443600
C        3.69000000       2.13042000      13.86555000      -0.21326400       0.12321600       0.06452400
C        2.46000000       0.00000000      13.85279000      -0.00105000       0.00069000       0.09041900
C        1.23000000       2.13042000      13.86555000       0.21115400       0.12321100       0.06443300
C       -0.00005000       1.42031000      13.92253000       0.00111600      -0.00071300      -0.03240400
C       -1.23005000       3.55073000      13.85339000       0.08990000       0.05056700       0.04517600
C        2.45995000       1.42031000      13.85339000       0.00109500      -0.10321700       0.04517200
C        1.22995000       3.55073000      13.85337000      -0.08766500       0.05054000       0.04513100
C        0.00000000       0.00000000      10.14479000       0.00003000      -0.32380800      -0.02402000
C        3.69000000       2.13042000      10.14479000      -0.28005600       0.16130200      -0.02404300
C        2.46000000       0.00000000      10.15610000       0.00040700      -0.00116000      -0.02180100
C        1.23000000       2.13042000      10.14479000       0.28052000       0.16052500      -0.02401400
C        1.23005000       0.71011000      10.14455000       0.28049400      -0.16258100      -0.02580800
C        0.00005000       2.84053000      10.14455000      -0.00199000       0.32679100      -0.02581000
C        3.69000000       0.71011000      10.14455000      -0.28112600      -0.16206000      -0.02581600
C        2.46000000       2.84053000      10.15643000       0.00141200       0.00110700      -0.02263500
Li      -0.00006000       1.42029000      11.88733000       0.00007200      -0.00005000      -0.19294100
17
Lattice="4.920000076 0.0 0.0 -2.460000038 4.260845053 0.0 0.0 0.0 24.0" Properties=species:S:1:pos:R:3:forces:R:3 stress="-0.012203280054253555 6.391305344904457e-05 -5.180452574483105e-07 6.391305344904457e-05 -0.012126340971258793 3.62007529301229e-07 -5.180452574483105e-07 3.62007529301229e-07 0.0013142433690916083" free_energy=-150.46068959 energy=-150.45956436 pbc="T T T"
C        0.00000000       0.00000000      13.87131000      -0.00105300      -0.24845600       0.03666100
C        3.69000000       2.13042000      13.87132000      -0.21681900       0.12526300       0.03669500
C        2.46000000       0.00000000      13.85896000      -0.00105000       0.00068700       0.06261400
C        1.23000000       2.13042000      13.87131000       0.21470000       0.12525500       0.03666500
C       -0.00005000       1.42031000      13.92022000       0.00112200      -0.00071000      -0.00326800
C       -1.23005000       3.55073000      13.85914000       0.08604200       0.04833600       0.05455200
C        2.45995000       1.42031000      13.85914000       0.00110100      -0.09875500       0.05455200
C        1.22995000       3.55073000      13.85911000      -0.08380500       0.04831600       0.05457500
C        0.00000000       0.00000000      10.14239000       0.00002700      -0.33429900      -0.03599200
C        3.69000000       2.13042000      10.14238000      -0.28913000       0.16653700      -0.03599100
C        2.46000000       0.00000000      10.15442000       0.00040900      -0.00116900      -0.03020100
C        1.23000000       2.13042000      10.14239000       0.28959500       0.16576400      -0.03598900
C        1.23005000       0.71011000      10.14201000       0.28919400      -0.16759900      -0.03385000
C        0.00005000       2.84053000      10.14201000      -0.00199000       0.33684300      -0.03385200
C        3.69000000       0.71011000      10.14201000      -0.28982600      -0.16707700      -0.03385300
C        2.46000000       2.84053000      10.15474000       0.00141600       0.00111400      -0.02863400
Li      -0.00005000       1.42029000      11.86714000       0.00006700      -0.00004800      -0.06468600
17
Lattice="4.920000076 0.0 0.0 -2.460000038 4.260845053 0.0 0.0 0.0 24.0" Properties=species:S:1:pos:R:3:forces:R:3 stress="-0.012085097078954955 6.390057043079279e-05 -4.868377118188941e-07 6.390057043079279e-05 -0.012008139271432813 3.3704149279769594e-07 -4.868377118188941e-07 3.3704149279769594e-07 0.0015195515702784122" free_energy=-150.46305879 energy=-150.46193264 pbc="T T T"
C        0.00000000       0.00000000      13.87511000      -0.00105200      -0.24997000       0.02424100
C        3.69000000       2.13042000      13.87512000      -0.21812900       0.12601700       0.02422700
C        2.46000000       0.00000000      13.86410000      -0.00104400       0.00068300       0.04778600
C        1.23000000       2.13042000      13.87511000       0.21601200       0.12601000       0.02424600
C       -0.00005000       1.42031000      13.91946000       0.00112000      -0.00070600       0.01898300
C       -1.23005000       3.55073000      13.86427000       0.08418000       0.04726000       0.03455600
C        2.45995000       1.42031000      13.86426000       0.00110200      -0.09660200       0.03455600
C        1.22995000       3.55073000      13.86423000      -0.08194800       0.04724500       0.03459400
C        0.00000000       0.00000000      10.13953000       0.00002400      -0.33895200      -0.03918000
C        3.69000000       2.13042000      10.13952000      -0.29315600       0.16885700      -0.03916400
C        2.46000000       0.00000000      10.15221000       0.00041100      -0.00117200      -0.03666300
C        1.23000000       2.13042000      10.13953000       0.29362100       0.16808800      -0.03917700
C        1.23005000       0.71011000      10.13925000       0.29283600      -0.16969800      -0.01680800
C        0.00005000       2.84053000      10.13925000      -0.00199000       0.34104600      -0.01680400
C        3.69000000       0.71011000      10.13925000      -0.29346700      -0.16917400      -0.01680400
C        2.46000000       2.84053000      10.15262000       0.00141700       0.00111400      -0.03806200
Li      -0.00005000       1.42028000      11.85718000       0.00006300      -0.00004600      -0.00052900
17
Lattice="4.920000076 0.0 0.0 -2.460000038 4.260845053 0.0 0.0 0.0 24.0" Properties=species:S:1:pos:R:3:forces:R:3 stress="-0.012031001919360925 6.388808741254104e-05 -4.2442262056006164e-07 6.388808741254104e-05 -0.011954094043911793 2.9335092891651315e-07 -4.2442262056006164e-07 2.9335092891651315e-07 0.0016662457592640466" free_energy=-150.46430023 energy=-150.46315911 pbc="T T T"
C        0.00000000       0.00000000      13.87733000      -0.00104600      -0.24957800       0.02937500
C        3.69000000       2.13042000      13.87734000      -0.21778300       0.12581800       0.02935100
C        2.46000000       0.00000000      13.86875000      -0.00104000       0.00067800       0.03205800
C        1.23000000       2.13042000      13.87732000       0.21567600       0.12581100       0.02937000
C       -0.00005000       1.42031000      13.92163000       0.00111100      -0.00070100       0.01211100
C       -1.23005000       3.55073000      13.86743000       0.08434900       0.04735900       0.03181400
C        2.45995000       1.42031000      13.86743000       0.00110100      -0.09679900       0.03181700
C        1.22995000       3.55073000      13.86741000      -0.08212700       0.04734800       0.03182500
C        0.00000000       0.00000000      10.13565000       0.00002300      -0.33650600      -0.00086200
C        3.69000000       2.13042000      10.13564000      -0.29103500       0.16763800      -0.00085800
C        2.46000000       0.00000000      10.14849000       0.00041100      -0.00117200      -0.00357600
C        1.23000000       2.13042000      10.13565000       0.29150000       0.16687000      -0.00086200
C        1.23005000       0.71011000      10.13783000       0.29133300      -0.16883300      -0.05556900
C        0.00005000       2.84053000      10.13783000      -0.00199200       0.33930300      -0.05556900
C        3.69000000       0.71011000      10.13783000      -0.29195900      -0.16830600      -0.05557000
C        2.46000000       2.84053000      10.14872000       0.00141900       0.00111200      -0.04458900
Li      -0.00004000       1.42028000      11.85772000       0.00005900      -0.00004300      -0.01026400
17
Lattice="4.920000076 0.0 0.0 -2.460000038 4.260845053 0.0 0.0 0.0 24.0" Properties=species:S:1:pos:R:3:forces:R:3 stress="-0.012034778032382083 6.386936288516339e-05 -3.9321507493064526e-07 6.386936288516339e-05 -0.011957888881460328 2.746264015388634e-07 -3.9321507493064526e-07 2.746264015388634e-07 0.0018285811701191442" free_energy=-150.46588232 energy=-150.46473382 pbc="T T T"
C        0.00000000       0.00000000      13.88017000      -0.00104400      -0.24965500       0.03539300
C        3.69000000       2.13042000      13.88018000      -0.21784500       0.12585500       0.03537300
C        2.46000000       0.00000000      13.87336000      -0.00103700       0.00067600       0.02635600
C        1.23000000       2.13042000      13.88017000       0.21574400       0.12584700       0.03539000
C       -0.00005000       1.42031000      13.92357000       0.00110400      -0.00069600       0.01522400
C       -1.23005000       3.55073000      13.87109000       0.08411100       0.04722000       0.03426900
C        2.45995000       1.42031000      13.87109000       0.00110300      -0.09652200       0.03427300
C        1.22995000       3.55073000      13.87107000      -0.08188800       0.04721000       0.03426400
C        0.00000000       0.00000000      10.13284000       0.00001900      -0.33522400      -0.01870900
C        3.69000000       2.13042000      10.13284000      -0.28992500       0.16699500      -0.01871000
C        2.46000000       0.00000000      10.14572000       0.00041100      -0.00117200      -0.00582900
C        1.23000000       2.13042000      10.13284000       0.29039000       0.16623200      -0.01871000
C        1.23005000       0.71011000      10.13469000       0.29028100      -0.16822500      -0.05645000
C        0.00005000       2.84053000      10.13469000      -0.00199500       0.33808300      -0.05644600
C        3.69000000       0.71011000      10.13468000      -0.29090500      -0.16769200      -0.05645000
C        2.46000000       2.84053000      10.14425000       0.00142300       0.00110800      -0.00860700
Li      -0.00003000       1.42027000      11.85672000       0.00005400      -0.00004000      -0.01063200
17
Lattice="4.920000076 0.0 0.0 -2.460000038 4.260845053 0.0 0.0 0.0 24.0" Properties=species:S:1:pos:R:3:forces:R:3 stress="-0.012059744068885618 6.384439684865986e-05 -3.557660201753457e-07 6.384439684865986e-05 -0.011982879884000364 2.4341885590944707e-07 -3.557660201753457e-07 2.4341885590944707e-07 0.0018506324218608898" free_energy=-150.46744796 energy=-150.46628855 pbc="T T T"
C        0.00000000       0.00000000      13.88307000      -0.00103900      -0.24969500       0.04345500
C        3.69000000       2.13042000      13.88308000      -0.21787300       0.12587100       0.04343900
C        2.46000000       0.00000000      13.87760000      -0.00103100       0.00067200       0.01361800
C        1.23000000       2.13042000      13.88307000       0.21578200       0.12586300       0.04345000
C       -0.00005000       1.42031000      13.92552000       0.00109600      -0.00069100       0.02277900
C       -1.23005000       3.55073000      13.87461000       0.08383600       0.04706400       0.02822400
C        2.45995000       1.42031000      13.87461000       0.00110000      -0.09620700       0.02822800
C        1.22995000       3.55073000      13.87459000      -0.08162400       0.04705700       0.02820900
C        0.00000000       0.00000000      10.12955000       0.00001700      -0.33396900      -0.01628200
C        3.69000000       2.13042000      10.12955000      -0.28883600       0.16636800      -0.01628900
C        2.46000000       0.00000000      10.14297000       0.00041300      -0.00117300       0.00178000
C        1.23000000       2.13042000      10.12955000       0.28930200       0.16560700      -0.01628500
C        1.23005000       0.71011000      10.13175000       0.28922000      -0.16761300      -0.06047900
C        0.00005000       2.84053000      10.13175000      -0.00199900       0.33685600      -0.06046700
C        3.69000000       0.71011000      10.13175000      -0.28984200      -0.16707700      -0.06047100
C        2.46000000       2.84053000      10.14118000       0.00142700       0.00110400      -0.01574800
Li      -0.00003000       1.42027000      11.85582000       0.00005100      -0.00003700      -0.00716100
17
Lattice="4.920000076 0.0 0.0 -2.460000038 4.260845053 0.0 0.0 0.0 24.0" Properties=species:S:1:pos:R:3:forces:R:3 stress="-0.012061223306548453 6.391305344904457e-05 -4.369056388118281e-07 6.391305344904457e-05 -0.011984265499026312 2.995924380423964e-07 -4.369056388118281e-07 2.995924380423964e-07 0.0016577635483619709" free_energy=-150.4645931 energy=-150.46346049 pbc="T T T"
C        0.00000000       0.00000000      13.87794000      -0.00105000      -0.25069600       0.02995900
C        3.69000000       2.13042000      13.87795000      -0.21875800       0.12638000       0.02992100
C        2.46000000       0.00000000      13.87026000      -0.00104600       0.00068000       0.03551400
C        1.23000000       2.13042000      13.87794000       0.21664200       0.12637100       0.02995900
C       -0.00005000       1.42031000      13.91994000       0.00111500      -0.00070000       0.02070300
C       -1.23005000       3.55073000      13.86917000       0.08336900       0.04678600       0.02412300
C        2.45995000       1.42031000      13.86917000       0.00110800      -0.09566200       0.02412600
C        1.22995000       3.55073000      13.86914000      -0.08113400       0.04677600       0.02415400
C        0.00000000       0.00000000      10.13625000       0.00002100      -0.34003300      -0.02461100
C        3.69000000       2.13042000      10.13624000      -0.29408700       0.16939600      -0.02460100
C        2.46000000       0.00000000      10.14861000       0.00041200      -0.00117500      -0.02022600
C        1.23000000       2.13042000      10.13625000       0.29455200       0.16863000      -0.02461200
C        1.23005000       0.71011000      10.13695000       0.29410200      -0.17042800      -0.04349300
C        0.00005000       2.84053000      10.13694000      -0.00199200       0.34250600      -0.04348200
C        3.69000000       0.71011000      10.13694000      -0.29473000      -0.16990100      -0.04348400
C        2.46000000       2.84053000      10.14841000       0.00141900       0.00111300      -0.03127200
Li      -0.00004000       1.42028000      11.85192000       0.00005800      -0.00004200       0.03732200
17
Lattice="4.920000076 0.0 0.0 -2.460000038 4.260845053 0.0 0.0 0.0 24.0" Properties=species:S:1:pos:R:3:forces:R:3 stress="-0.012161337112927618 6.383815533953397e-05 -3.3704149279769594e-07 6.383815533953397e-05 -0.012084485411060619 2.3093583765768057e-07 -3.3704149279769594e-07 2.3093583765768057e-07 0.0019305112556539435" free_energy=-150.46823234 energy=-150.46707041 pbc="T T T"
C        0.00000000       0.00000000      13.88610000      -0.00104000      -0.24934200       0.03777500
C        3.69000000       2.13042000      13.88612000      -0.21756700       0.12569300       0.03775000
C        2.46000000       0.00000000      13.87853000      -0.00103100       0.00067100       0.04144400
C        1.23000000       2.13042000      13.88610000       0.21547500       0.12568500       0.03777100
C       -0.00005000       1.42031000      13.92775000       0.00109500      -0.00069000      -0.00947900
C       -1.23005000       3.55073000      13.87757000       0.08261700       0.04635800       0.02508800
C        2.45995000       1.42031000      13.87757000       0.00110300      -0.09479700       0.02509300
C        1.22995000       3.55073000      13.87755000      -0.08040400       0.04635500       0.02510300
C        0.00000000       0.00000000      10.12665000       0.00001500      -0.33683200       0.00080900
C        3.69000000       2.13042000      10.12665000      -0.29131300       0.16779600       0.00081000
C        2.46000000       0.00000000      10.14203000       0.00041300      -0.00117500       0.00176600
C        1.23000000       2.13042000      10.12665000       0.29177900       0.16703800       0.00080500
C        1.23005000       0.71011000      10.13047000       0.29190600      -0.16916300      -0.07986700
C        0.00005000       2.84053000      10.13047000      -0.00200000       0.33996000      -0.07985700
C        3.69000000       0.71011000      10.13047000      -0.29252700      -0.16862600      -0.07986200
C        2.46000000       2.84053000      10.14023000       0.00143000       0.00110400      -0.04314200
Li      -0.00002000       1.42027000      11.84907000       0.00004900      -0.00003600       0.05799100
17
Lattice="4.920000076 0.0 0.0 -2.460000038 4.260845053 0.0 0.0 0.0 24.0" Properties=species:S:1:pos:R:3:forces:R:3 stress="-0.012436494042742182 6.404412514068812e-05 -7.115320403506914e-07 6.404412514068812e-05 -0.012359355231455392 4.993207300706607e-07 -7.115320403506914e-07 4.993207300706607e-07 0.00039988100667708856" free_energy=-150.4515136 energy=-150.4504401 pbc="T T T"
C        0.00000000       0.00000000      13.85708000      -0.00107400      -0.25117700       0.06932100
C        3.69000000       2.13042000      13.85710000      -0.21921200       0.12664000       0.06926300
C        2.46000000       0.00000000      13.85144000      -0.00107600       0.00069600       0.04786000
C        1.23000000       2.13042000      13.85708000       0.21704500       0.12662800       0.06932800
C       -0.00005000       1.42031000      13.90365000       0.00116400      -0.00073100       0.04194700
C       -1.23005000       3.55073000      13.84939000       0.08584100       0.04819600       0.04304100
C        2.45995000       1.42031000      13.84939000       0.00112400      -0.09850900       0.04304000
C        1.22995000       3.55073000      13.84935000      -0.08354800       0.04817100       0.04308400
C        0.00000000       0.00000000      10.15813000       0.00003200      -0.34905500      -0.10475600
C        3.69000000       2.13042000      10.15812000      -0.30191200       0.17390900      -0.10473900
C        2.46000000       0.00000000      10.16210000       0.00040400      -0.00117100       0.03489300
C        1.23000000       2.13042000      10.15813000       0.30236500       0.17312400      -0.10475800
C        1.23005000       0.71011000      10.15483000       0.30087000      -0.17433100      -0.05985000
C        0.00005000       2.84053000      10.15482000      -0.00198800       0.35036600      -0.05984900
C        3.69000000       0.71011000      10.15482000      -0.30152300      -0.17382600      -0.05984700
C        2.46000000       2.84053000      10.16677000       0.00140500       0.00113000       0.03283900
Li      -0.00007000       1.42030000      11.85783000       0.00008300      -0.00006000      -0.00081700
17
Lattice="4.920000076 0.0 0.0 -2.460000038 4.260845053 0.0 0.0 0.0 24.0" Properties=species:S:1:pos:R:3:forces:R:3 stress="-0.012138873921583564 6.385063835778573e-05 -3.62007529301229e-07 6.385063835778573e-05 -0.012062003495189186 2.559018741612136e-07 -3.62007529301229e-07 2.559018741612136e-07 0.0018575355309541166" free_energy=-150.46787932 energy=-150.46671918 pbc="T T T"
C        0.00000000       0.00000000      13.88440000      -0.00103900      -0.24998800       0.03281600
C        3.69000000       2.13042000      13.88441000      -0.21812500       0.12601700       0.03280300
C        2.46000000       0.00000000      13.87688000      -0.00103100       0.00067300       0.03121400
C        1.23000000       2.13042000      13.88440000       0.21603500       0.12600900       0.03281500
C       -0.00005000       1.42031000      13.92664000       0.00109600      -0.00069100       0.00952400
C       -1.23005000       3.55073000      13.87529000       0.08351300       0.04687600       0.03081900
C        2.45995000       1.42031000      13.87529000       0.00110100      -0.09583300       0.03082000
C        1.22995000       3.55073000      13.87526000      -0.08130000       0.04687000       0.03082600
C        0.00000000       0.00000000      10.12979000       0.00001800      -0.33389800      -0.03589700
C        3.69000000       2.13042000      10.12978000      -0.28877200       0.16633100      -0.03588100
C        2.46000000       0.00000000      10.14183000       0.00041500      -0.00117300      -0.00753400
C        1.23000000       2.13042000      10.12979000       0.28924000       0.16557000      -0.03589500
C        1.23005000       0.71011000      10.13015000       0.28881100      -0.16737700      -0.03978500
C        0.00005000       2.84053000      10.13015000      -0.00200300       0.33638900      -0.03978600
C        3.69000000       0.71011000      10.13015000      -0.28943600      -0.16684100      -0.03978500
C        2.46000000       2.84053000      10.14025000       0.00142700       0.00110400       0.00406800
Li      -0.00003000       1.42027000      11.85555000       0.00005000      -0.00003700      -0.00114100
17
Lattice="4.920000076 0.0 0.0 -2.460000038 4.260845053 0.0 0.0 0.0 24.0" Properties=species:S:1:pos:R:3:forces:R:3 stress="-0.012450799581658708 6.370708364789042e-05 -1.8724527377649773e-07 6.370708364789042e-05 -0.012374147608083733 1.373132007694317e-07 -1.8724527377649773e-07 1.373132007694317e-07 0.0024302938573999193" free_energy=-150.47635859 energy=-150.47512714 pbc="T T T"
C        0.00000000       0.00000000      13.90224000      -0.00101300      -0.24970400       0.02562400
C        3.69000000       2.13042000      13.90225000      -0.21783800       0.12585200       0.02564200
C        2.46000000       0.00000000      13.89406000      -0.00099700       0.00065400       0.03927400
C        1.23000000       2.13042000      13.90224000       0.21580400       0.12584700       0.02562300
C       -0.00005000       1.42031000      13.94073000       0.00104400      -0.00066100       0.00682600
C       -1.23005000       3.55073000      13.89287000       0.08185000       0.04593400       0.04103000
C        2.45995000       1.42031000      13.89287000       0.00108400      -0.09392300       0.04103000
C        1.22995000       3.55073000      13.89285000      -0.07969500       0.04594200       0.04101800
C        0.00000000       0.00000000      10.11215000       0.00000300      -0.32512000      -0.03329600
C        3.69000000       2.13042000      10.11215000      -0.28117200       0.16194900      -0.03328900
C        2.46000000       0.00000000      10.12727000       0.00041700      -0.00117000      -0.04657800
C        1.23000000       2.13042000      10.11215000       0.28163800       0.16120300      -0.03329300
C        1.23005000       0.71011000      10.11315000       0.28133600      -0.16306800      -0.03426800