17
Lattice="4.920000076 0.0 0.0 -2.460000038 4.260845053 0.0 0.0 0.0 24.0" Properties=species:S:1:pos:R:3:forces:R:3 stress="-0.01245643566439938 6.517383829247298e-05 -9.175018415048388e-07 6.517383829247298e-05 -0.012377942445632272 8.613282593718895e-07 -9.175018415048388e-07 8.613282593718895e-07 -0.02217988300332088" free_energy=-149.15264558 energy=-149.15180133 pbc="T T T"
C        0.00000000       0.00000000      13.60000000      -0.00119300      -0.36819800       0.27350600
C        3.69000000       2.13042000      13.60000000      -0.32076200       0.18525500       0.27366600
C        2.46000000       0.00000000      13.60000000      -0.00128800       0.00080900       0.11652100
C        1.23000000       2.13042000      13.60000000       0.31832400       0.18522200       0.27350400
C       -0.00005000       1.42031000      13.60000000       0.00126900      -0.00079100       5.20968200
C       -1.23005000       3.55073000      13.60000000       0.12671600       0.07162100       0.09369700
C        2.45995000       1.42031000      13.60000000       0.00128700      -0.14563100       0.09369600
C        1.22995000       3.55073000      13.60000000      -0.12404500       0.07156700       0.09368400
C        0.00000000       0.00000000      10.40000000      -0.00007900      -0.42141500      -0.32974400
C        3.69000000       2.13042000      10.40000000      -0.36468000       0.21015100      -0.32978900
C        2.46000000       0.00000000      10.40000000       0.00037500      -0.00114400       0.03688900
C        1.23000000       2.13042000      10.40000000       0.36498300       0.20941100      -0.32975800
C        1.23005000       0.71011000      10.40000000       0.36587300      -0.21186300      -0.32055300
C        0.00005000       2.84053000      10.40000000      -0.00192200       0.42542200      -0.32078100
C        3.69000000       0.71011000      10.40000000      -0.36646300      -0.21140100      -0.32075000
C        2.46000000       2.84053000      10.40000000       0.00144600       0.00111900       0.03286500
Li      -0.00005000       1.42031000      12.00000000       0.00016000      -0.00013300      -4.54633500
17
Lattice="4.920000076 0.0 0.0 -2.460000038 4.260845053 0.0 0.0 0.0 24.0" Properties=species:S:1:pos:R:3:forces:R:3 stress="-0.013570045722639472 6.353232139236568e-05 -1.6976904822402466e-06 6.353232139236568e-05 -0.01349369334150254 1.3606489894425502e-06 -1.6976904822402466e-06 1.3606489894425502e-06 -0.008747768390854303" free_energy=-149.5399616 energy=-149.53940704 pbc="T T T"
C        0.00000000       0.00000000      13.61319000      -0.00161500       0.01861400       1.16465100
C        3.69000000       2.13042000      13.61320000       0.01390600      -0.00798500       1.16441500
C        2.46000000       0.00000000      13.60562000      -0.00151700       0.00092300       0.39034400
C        1.23000000       2.13042000      13.61319000      -0.01690000      -0.00785000       1.16464500
C       -0.00005000       1.42031000      13.85133000       0.00153400      -0.00092700      -2.57659500
C       -1.23005000       3.55073000      13.60452000       0.08531500       0.04739900       0.03053500
C        2.45995000       1.42031000      13.60452000       0.00157700      -0.09762300       0.03053300
C        1.22995000       3.55073000      13.60452000      -0.08210600       0.04736800       0.02966400
C        0.00000000       0.00000000      10.38409000      -0.00010800      -0.67827400      -0.50831400
C        3.69000000       2.13042000      10.38409000      -0.58726000       0.33868000      -0.50847900
C        2.46000000       0.00000000      10.40178000       0.00029300      -0.00108300      -0.13616300
C        1.23000000       2.13042000      10.38409000       0.58741200       0.33789500      -0.50831500
C        1.23005000       0.71011000      10.38454000       0.58574200      -0.33882300      -0.50289600
C        0.00005000       2.84053000      10.38452000      -0.00183600       0.67924000      -0.50305500
C        3.69000000       0.71011000      10.38453000      -0.58622000      -0.33838700      -0.50300700
C        2.46000000       2.84053000      10.40159000       0.00155300       0.00103700      -0.13370500
Li      -0.00004000       1.42030000      11.78067000       0.00023000      -0.00020400       1.90574200
17
Lattice="4.920000076 0.0 0.0 -2.460000038 4.260845053 0.0 0.0 0.0 24.0" Properties=species:S:1:pos:R:3:forces:R:3 stress="-0.01316120815036674 6.456841190726231e-05 -9.050188232530724e-07 6.456841190726231e-05 -0.013083507603258618 7.989131681130572e-07 -9.050188232530724e-07 7.989131681130572e-07 -0.010240256777562885" free_energy=-149.85555318 energy=-149.85493436 pbc="T T T"
C        0.00000000       0.00000000      13.65002000      -0.00145200      -0.23915900       0.18914900
C        3.69000000       2.13042000      13.65002000      -0.20926600       0.12087300       0.18928300
C        2.46000000       0.00000000      13.61796000      -0.00143800       0.00089100       0.04527000
C        1.23000000       2.13042000      13.65002000       0.20642000       0.12090500       0.18914500
C       -0.00005000       1.42031000      13.76985000       0.00144300      -0.00088300      -0.26810400
C       -1.23005000       3.55073000      13.60549000       0.09825700       0.05498600       0.51727900
C        2.45995000       1.42031000      13.60549000       0.00147200      -0.11262600       0.51727600
C        1.22995000       3.55073000      13.60546000      -0.09522300       0.05493500       0.51693400
C        0.00000000       0.00000000      10.36802000      -0.00009500      -0.56647100      -0.31832400
C        3.69000000       2.13042000      10.36801000      -0.49034700       0.28271500      -0.31845300
C        2.46000000       0.00000000      10.39747000       0.00033600      -0.00112200      -0.29827400
C        1.23000000       2.13042000      10.36802000       0.49059600       0.28196700      -0.31834100
C        1.23005000       0.71011000      10.36863000       0.48967800      -0.28335200      -0.31668600
C        0.00005000       2.84053000      10.36862000      -0.00186600       0.56829400      -0.31665400
C        3.69000000       0.71011000      10.36862000      -0.49017400      -0.28288500      -0.31666000
C        2.46000000       2.84053000      10.39736000       0.00150600       0.00107000      -0.28539900
Li      -0.00003000       1.42030000      11.84094000       0.00015300      -0.00013700       0.59255800
17
Lattice="4.920000076 0.0 0.0 -2.460000038 4.260845053 0.0 0.0 0.0 24.0" Properties=species:S:1:pos:R:3:forces:R:3 stress="-0.012910805045745431 6.470572510803175e-05 -9.42467878008372e-07 6.470572510803175e-05 -0.012832960943927413 7.864301498612905e-07 -9.42467878008372e-07 7.864301498612905e-07 -0.009810622496882712" free_energy=-149.9189649 energy=-149.91829962 pbc="T T T"
C        0.00000000       0.00000000      13.65469000      -0.00141500      -0.24459300       0.31969800
C        3.69000000       2.13042000      13.65470000      -0.21393000       0.12357000       0.31984300
C        2.46000000       0.00000000      13.61879000      -0.00141300       0.00088100       0.31935400
C        1.23000000       2.13042000      13.65469000       0.21114500       0.12359500       0.31969400
C       -0.00005000       1.42031000      13.76568000       0.00140900      -0.00086800      -0.04159100
C       -1.23005000       3.55073000      13.62659000       0.10145000       0.05684600       0.26387200
C        2.45995000       1.42031000      13.62659000       0.00145600      -0.11632300       0.26387000
C        1.22995000       3.55073000      13.62655000      -0.09847100       0.05680800       0.26371000
C        0.00000000       0.00000000      10.35633000      -0.00009300      -0.52800300      -0.26916900
C        3.69000000       2.13042000      10.35631000      -0.45702200       0.26347900      -0.26921100
C        2.46000000       0.00000000      10.38562000       0.00033800      -0.00111900      -0.29351400
C        1.23000000       2.13042000      10.35632000       0.45728800       0.26273800      -0.26917600
C        1.23005000       0.71011000      10.35699000       0.45616300      -0.26400700      -0.27713600
C        0.00005000       2.84053000      10.35698000      -0.00187900       0.52956900      -0.27709600
C        3.69000000       0.71011000      10.35698000      -0.45665600      -0.26352600      -0.27710600
C        2.46000000       2.84053000      10.38602000       0.00150500       0.00106600      -0.29362900
Li      -0.00003000       1.42029000      11.86017000       0.00012400      -0.00011200       0.19758600
17
Lattice="4.920000076 0.0 0.0 -2.460000038 4.260845053 0.0 0.0 0.0 24.0" Properties=species:S:1:pos:R:3:forces:R:3 stress="-0.01216403344487 6.473069114453526e-05 -7.115320403506914e-07 6.473069114453526e-05 -0.012086151893997229 5.867018578330263e-07 -7.115320403506914e-07 5.867018578330263e-07 -0.008119972436936462" free_energy=-150.03745465 energy=-150.03669067 pbc="T T T"
C        0.00000000       0.00000000      13.68746000      -0.00132300      -0.27244900       0.21041100
C        3.69000000       2.13042000      13.68749000      -0.23792600       0.13742900       0.21044100
C        2.46000000       0.00000000      13.65226000      -0.00131600       0.00082900       0.28789000
C        1.23000000       2.13042000      13.68746000       0.23531700       0.13744900       0.21040800
C       -0.00005000       1.42031000      13.76715000       0.00132500      -0.00081700       0.50622900
C       -1.23005000       3.55073000      13.66331000       0.10145200       0.05693400       0.14496900
C        2.45995000       1.42031000      13.66331000       0.00137800      -0.11637000       0.14496900
C        1.22995000       3.55073000      13.66325000      -0.09866700       0.05691800       0.14508600
C        0.00000000       0.00000000      10.32423000      -0.00007500      -0.46582900      -0.19468100
C        3.69000000       2.13042000      10.32421000      -0.40312800       0.23236200      -0.19457800
C        2.46000000       0.00000000      10.34974000       0.00035300      -0.00113100      -0.21300800
C        1.23000000       2.13042000      10.32422000       0.40345000       0.23163000      -0.19466700
C        1.23005000       0.71011000      10.32404000       0.40252300      -0.23303400      -0.18654700
C        0.00005000       2.84053000      10.32403000      -0.00191400       0.46762400      -0.18651300
C        3.69000000       0.71011000      10.32404000      -0.40303100      -0.23252700      -0.18652000
C        2.46000000       2.84053000      10.35033000       0.00149600       0.00106000      -0.22016700
Li      -0.00001000       1.42028000      11.88348000       0.00008600      -0.00007700      -0.28371900
17
Lattice="4.920000076 0.0 0.0 -2.460000038 4.260845053 0.0 0.0 0.0 24.0" Properties=species:S:1:pos:R:3:forces:R:3 stress="-0.012179337625246665 6.463706850764702e-05 -6.990490220989249e-07 6.463706850764702e-05 -0.012101562180029033 5.742188395812598e-07 -6.990490220989249e-07 5.742188395812598e-07 -0.006942848781831382" free_energy=-150.06100779 energy=-150.06025865 pbc="T T T"
C        0.00000000       0.00000000      13.69307000      -0.00134100      -0.24983900       0.24663700
C        3.69000000       2.13042000      13.69309000      -0.21837000       0.12613600       0.24662400
C        2.46000000       0.00000000      13.66031000      -0.00132000       0.00083000       0.23394400
C        1.23000000       2.13042000      13.69307000       0.21572800       0.12615900       0.24663400
C       -0.00005000       1.42031000      13.78882000       0.00134500      -0.00083000       0.05659000
C       -1.23005000       3.55073000      13.66666000       0.09984000       0.05599100       0.18747800
C        2.45995000       1.42031000      13.66666000       0.00138900      -0.11450100       0.18747800
C        1.22995000       3.55073000      13.66661000      -0.09703800       0.05597900       0.18745200
C        0.00000000       0.00000000      10.31867000      -0.00007500      -0.47446900      -0.20576900
C        3.69000000       2.13042000      10.31866000      -0.41061100       0.23668300      -0.20571500
C        2.46000000       0.00000000      10.34427000       0.00035100      -0.00112900      -0.18654600
C        1.23000000       2.13042000      10.31867000       0.41093100       0.23595000      -0.20576000
C        1.23005000       0.71011000      10.31906000       0.41039100      -0.23757600      -0.20791500
C        0.00005000       2.84053000      10.31905000      -0.00191000       0.47670100      -0.20788200
C        3.69000000       0.71011000      10.31905000      -0.41089100      -0.23706700      -0.20788900
C        2.46000000       2.84053000      10.34456000       0.00149800       0.00105800      -0.18648800
Li      -0.00001000       1.42028000      11.86972000       0.00008300      -0.00007500       0.02112800
17
Lattice="4.920000076 0.0 0.0 -2.460000038 4.260845053 0.0 0.0 0.0 24.0" Properties=species:S:1:pos:R:3:forces:R:3 stress="-0.013002811131770072 6.851928718394642e-05 1.0398354203721508e-05 6.851928718394642e-05 -0.012920510592436178 -5.960641215218511e-06 1.0398354203721508e-05 -5.960641215218511e-06 -0.002336983295967965" free_energy=-150.35008697 energy=-150.34913588 pbc="T T T"
C        0.00000000       0.00000000      13.79652000      -0.00156300      -0.25341400       0.02760600
C        3.69000000       2.13042000      13.79656000      -0.22181700       0.12813800       0.02742100
C        2.46000000       0.00000000      13.76784000      -0.00152000       0.00095200       0.14679100
C        1.23000000       2.13042000      13.79652000       0.21872100       0.12815400       0.02761500
C       -0.00005000       1.42031000      13.86103000       0.00079000      -0.00050800       0.04327700
C       -1.23005000       3.55073000      13.77013000       0.09291600       0.04885500       0.21189900
C        2.45995000       1.42031000      13.77013000       0.00409800      -0.10494700       0.21190000
C        1.22995000       3.55073000      13.77006000      -0.08798200       0.05073800       0.21641600
C        0.00000000       0.00000000      10.21846000      -0.00040000      -0.38267300      -0.06599000
C        3.69000000       2.13042000      10.21846000      -0.33156800       0.19103700      -0.06597100
C        2.46000000       0.00000000      10.24260000       0.00003200      -0.00096000      -0.19810100
C        1.23000000       2.13042000      10.21846000       0.33126400       0.19031500      -0.06598700
C        1.23005000       0.71011000      10.21885000       0.33119800      -0.19184500      -0.07810600
C        0.00005000       2.84053000      10.21885000      -0.00237900       0.38595800      -0.07808700
C        3.69000000       0.71011000      10.21885000      -0.33253100      -0.19128900      -0.07809100
C        2.46000000       2.84053000      10.24268000       0.00108600       0.00130200      -0.20309000
Li       0.00003000       1.42024000      11.87399000      -0.00034400       0.00018700      -0.07950200
17
Lattice="4.920000076 0.0 0.0 -2.460000038 4.260845053 0.0 0.0 0.0 24.0" Properties=species:S:1:pos:R:3:forces:R:3 stress="-0.013142776973918005 6.399419306768105e-05 -3.3079998367181266e-07 6.399419306768105e-05 -0.013065681853195095 2.371773467835638e-07 -3.3079998367181266e-07 2.371773467835638e-07 -0.0013782812527231706" free_energy=-150.39521048 energy=-150.39421524 pbc="T T T"
C        0.00000000       0.00000000      13.81798000      -0.00111000      -0.24879700       0.13626700
C        3.69000000       2.13042000      13.81802000      -0.21722700       0.12549100       0.13516200
C        2.46000000       0.00000000      13.79732000      -0.00106500       0.00068900       0.17789000
C        1.23000000       2.13042000      13.81798000       0.21495500       0.12546000       0.13627500
C       -0.00005000       1.42031000      13.87863000       0.00116100      -0.00072100      -0.00255200
C       -1.23005000       3.55073000      13.80304000       0.08994600       0.05047200       0.09117700
C        2.45995000       1.42031000      13.80303000       0.00120800      -0.10318900       0.09118100
C        1.22995000       3.55073000      13.80323000      -0.08761800       0.05052300       0.08864500
C        0.00000000       0.00000000      10.19502000      -0.00000200      -0.36685700      -0.10788100
C        3.69000000       2.13042000      10.19502000      -0.31728600       0.18279000      -0.10789200
C        2.46000000       0.00000000      10.21089000       0.00042000      -0.00118700      -0.08330800
C        1.23000000       2.13042000      10.19502000       0.31776000       0.18205500      -0.10787400
C        1.23005000       0.71011000      10.19472000       0.31744600      -0.18390000      -0.10370000
C        0.00005000       2.84053000      10.19473000      -0.00201000       0.36943500      -0.10376400
C        3.69000000       0.71011000      10.19473000      -0.31805300      -0.18334200      -0.10375800
C        2.46000000       2.84053000      10.21063000       0.00144800       0.00110200      -0.07704500
Li       0.00002000       1.42024000      11.87002000       0.00002700      -0.00002400      -0.05882400
17
Lattice="4.920000076 0.0 0.0 -2.460000038 4.260845053 0.0 0.0 0.0 24.0" Properties=species:S:1:pos:R:3:forces:R:3 stress="-0.013340370669825219 6.406284966806576e-05 -2.621433832870969e-07 6.406284966806576e-05 -0.013263200650992799 1.8724527377649773e-07 -2.621433832870969e-07 1.8724527377649773e-07 -0.0014766661610744684" free_energy=-150.39784377 energy=-150.39684581 pbc="T T T"
C        0.00000000       0.00000000      13.82067000      -0.00111000      -0.25289900       0.08418700
C        3.69000000       2.13042000      13.82066000      -0.22073800       0.12751800       0.08397900
C        2.46000000       0.00000000      13.80139000      -0.00109000       0.00070300       0.12094600
C        1.23000000       2.13042000      13.82067000       0.21850800       0.12751100       0.08419100
C       -0.00005000       1.42031000      13.87627000       0.00112400      -0.00070000       0.05539700
C       -1.23005000       3.55073000      13.80349000       0.08854900       0.04968800       0.12896700
C        2.45995000       1.42031000      13.80349000       0.00118900      -0.10158800       0.12897000
C        1.22995000       3.55073000      13.80358000      -0.08620000       0.04970400       0.12779600
C        0.00000000       0.00000000      10.19352000      -0.00000500      -0.36792500      -0.09004700
C        3.69000000       2.13042000      10.19352000      -0.31821400       0.18332600      -0.09005700
C        2.46000000       0.00000000      10.21068000       0.00041800      -0.00118600      -0.10393300
C        1.23000000       2.13042000      10.19352000       0.31868400       0.18259300      -0.09004400
C        1.23005000       0.71011000      10.19340000       0.31833000      -0.18441000      -0.09119000
C        0.00005000       2.84053000      10.19341000      -0.00200300       0.37045000      -0.09121500
C        3.69000000       0.71011000      10.19341000      -0.31892900      -0.18385400      -0.09121400
C        2.46000000       2.84053000      10.21070000       0.00144700       0.00110200      -0.10390000
Li       0.00002000       1.42024000      11.86762000       0.00004000      -0.00003200      -0.06283300
17
Lattice="4.920000076 0.0 0.0 -2.460000038 4.260845053 0.0 0.0 0.0 24.0" Properties=species:S:1:pos:R:3:forces:R:3 stress="-0.012493254326732964 6.406909117719165e-05 -1.1234716426589864e-07 6.406909117719165e-05 -0.012416078066391419 7.48981095105991e-08 -1.1234716426589864e-07 7.48981095105991e-08 0.00022716596614564709" free_energy=-150.45248054 energy=-150.45140386 pbc="T T T"
C        0.00000000       0.00000000      13.85931000      -0.00107200      -0.25490500       0.04066300
C        3.69000000       2.13042000      13.85922000      -0.22236600       0.12846100       0.04236300
C        2.46000000       0.00000000      13.85055000      -0.00108100       0.00069700       0.07050500
C        1.23000000       2.13042000      13.85931000       0.22027200       0.12849000       0.04066200
C       -0.00005000       1.42031000      13.89981000       0.00104000      -0.00064900       0.10781200
C       -1.23005000       3.55073000      13.85079000       0.08404200       0.04715900       0.03813100
C        2.45995000       1.42031000      13.85079000       0.00112000      -0.09642800       0.03813200
C        1.22995000       3.55073000      13.85058000      -0.08176700       0.04714000       0.04037800
C        0.00000000       0.00000000      10.15486000       0.00000100      -0.35132100      -0.05953700
C        3.69000000       2.13042000      10.15486000      -0.30381200       0.17500900      -0.05951200
C        2.46000000       0.00000000      10.16882000       0.00043500      -0.00119600      -0.04110500
C        1.23000000       2.13042000      10.15486000       0.30430700       0.17428500      -0.05954200
C        1.23005000       0.71011000      10.15461000       0.30359300      -0.17590000      -0.05856600
C        0.00005000       2.84053000      10.15462000      -0.00200600       0.35343000      -0.05854100
C        3.69000000       0.71011000      10.15462000      -0.30419100      -0.17534300      -0.05854300
C        2.46000000       2.84053000      10.16902000       0.00144000       0.00110500      -0.04131800
Li       0.00003000       1.42023000      11.85338000       0.00004800      -0.00003400       0.01801900
17
Lattice="4.920000076 0.0 0.0 -2.460000038 4.260845053 0.0 0.0 0.0 24.0" Properties=species:S:1:pos:R:3:forces:R:3 stress="-0.01209545798410392 6.39754685403034e-05 -4.9932073007066075e-08 6.39754685403034e-05 -0.012018406553944892 1.8724527377649774e-08 -4.9932073007066075e-08 1.8724527377649774e-08 0.0015800942087994799" free_energy=-150.46604185 energy=-150.46490221 pbc="T T T"
C        0.00000000       0.00000000      13.88013000      -0.00104800      -0.25228800       0.04962000
C        3.69000000       2.13042000      13.88012000      -0.22011600       0.12716500       0.05019300
C        2.46000000       0.00000000      13.87806000      -0.00104000       0.00067300       0.00826500
C        1.23000000       2.13042000      13.88013000       0.21802200       0.12716600       0.04961800
C       -0.00005000       1.42031000      13.91847000       0.00104900      -0.00065500       0.05791800
C       -1.23005000       3.55073000      13.87477000       0.08271500       0.04638800       0.00243900
C        2.45995000       1.42031000      13.87477000       0.00112500      -0.09489400       0.00243800
C        1.22995000       3.55073000      13.87461000      -0.08050200       0.04640900       0.00390200
C        0.00000000       0.00000000      10.13280000      -0.00000000      -0.34025300      -0.02786100
C        3.69000000       2.13042000      10.13280000      -0.29423200       0.16948100      -0.02785700
C        2.46000000       0.00000000      10.14680000       0.00043800      -0.00119400      -0.04056300
C        1.23000000       2.13042000      10.13280000       0.29472600       0.16875800      -0.02786800
C        1.23005000       0.71011000      10.13258000       0.29394400      -0.17033500      -0.02914100
C        0.00005000       2.84053000      10.13259000      -0.00201000       0.34227600      -0.02909100
C        3.69000000       0.71011000      10.13259000      -0.29454200      -0.16977100      -0.02909300
C        2.46000000       2.84053000      10.14708000       0.00144300       0.00109500      -0.05495800
Li       0.00004000       1.42022000      11.84891000       0.00002700      -0.00002000       0.04204000
17
Lattice="4.920000076 0.0 0.0 -2.460000038 4.260845053 0.0 0.0 0.0 24.0" Properties=species:S:1:pos:R:3:forces:R:3 stress="-0.012174544146237988 6.390681193991868e-05 0.0 6.390681193991868e-05 -0.012097611304752351 -6.241509125883259e-09 0.0 -6.241509125883259e-09 0.0018909213632684657" free_energy=-150.47068059 energy=-150.46950614 pbc="T T T"
C        0.00000000       0.00000000      13.88999000      -0.00104200      -0.25204100       0.02268300
C        3.69000000       2.13042000      13.89003000      -0.21990600       0.12704500       0.02257700
C        2.46000000       0.00000000      13.88707000      -0.00101600       0.00066100      -0.00727100
C        1.23000000       2.13042000      13.88999000       0.21781200       0.12703900       0.02268200
C       -0.00005000       1.42031000      13.92698000       0.00105900      -0.00066200       0.04736900
C       -1.23005000       3.55073000      13.88271000       0.08215300       0.04606300       0.03525100
C        2.45995000       1.42031000      13.88271000       0.00112400      -0.09424600       0.03524900
C        1.22995000       3.55073000      13.88263000      -0.07996600       0.04609800       0.03577400
C        0.00000000       0.00000000      10.12423000      -0.00000100      -0.33439700      -0.03863900
C        3.69000000       2.13042000      10.12424000      -0.28916500       0.16655900      -0.03863300
C        2.46000000       0.00000000      10.13711000       0.00043700      -0.00119000      -0.01957900
C        1.23000000       2.13042000      10.12423000       0.28965800       0.16583500      -0.03864200
C        1.23005000       0.71011000      10.12393000       0.28893800      -0.16744900      -0.03293600
C        0.00005000       2.84053000      10.12394000      -0.00201800       0.33649300      -0.03292000
C        3.69000000       0.71011000      10.12394000      -0.28953700      -0.16688000      -0.03291900
C        2.46000000       2.84053000      10.13648000       0.00144900       0.00108700      -0.00868700
Li       0.00005000       1.42022000      11.84978000       0.00002000      -0.00001500       0.02864200
17
Lattice="4.920000076 0.0 0.0 -2.460000038 4.260845053 0.0 0.0 0.0 24.0" Properties=species:S:1:pos:R:3:forces:R:3 stress="-0.012175517821661626 6.389432892166692e-05 -1.2483018251766519e-08 6.389432892166692e-05 -0.012098603704703368 -0.0 -1.2483018251766519e-08 -0.0 0.0019173728789439592" free_energy=-150.47066791 energy=-150.46949305 pbc="T T T"
C        0.00000000       0.00000000      13.88950000      -0.00103800      -0.25136300       0.03493800
C        3.69000000       2.13042000      13.88953000      -0.21932000       0.12670600       0.03483300
C        2.46000000       0.00000000      13.88519000      -0.00101800       0.00066300       0.01787200
C        1.23000000       2.13042000      13.88950000       0.21722700       0.12669700       0.03493800
C       -0.00005000       1.42031000      13.92778000       0.00105700      -0.00066100       0.03380100
C       -1.23005000       3.55073000      13.88264000       0.08241700       0.04621700       0.02225700
C        2.45995000       1.42031000      13.88264000       0.00112300      -0.09455100       0.02225600
C        1.22995000       3.55073000      13.88258000      -0.08022900       0.04624900       0.02257900
C        0.00000000       0.00000000      10.12405000       0.00000000      -0.33357300      -0.03094600
C        3.69000000       2.13042000      10.12406000      -0.28845400       0.16614900      -0.03094800
C        2.46000000       0.00000000      10.13778000       0.00043700      -0.00118900      -0.02522200
C        1.23000000       2.13042000      10.12406000       0.28894600       0.16542300      -0.03095000
C        1.23005000       0.71011000      10.12398000       0.28837100      -0.16712100      -0.03327500
C        0.00005000       2.84053000      10.12399000      -0.00201900       0.33583700      -0.03325800
C        3.69000000       0.71011000      10.12399000      -0.28897000      -0.16655200      -0.03325800
C        2.46000000       2.84053000      10.13761000       0.00144900       0.00108500      -0.02407900
Li       0.00005000       1.42022000      11.85112000       0.00002000      -0.00001500       0.01846400
17
Lattice="4.920000076 0.0 0.0 -2.460000038 4.260845053 0.0 0.0 0.0 24.0" Properties=species:S:1:pos:R:3:forces:R:3 stress="-0.012258586066618006 6.381943081215631e-05 -6.241509125883259e-09 6.381943081215631e-05 -0.012181778055314887 -1.2483018251766519e-08 -6.241509125883259e-09 -1.2483018251766519e-08 0.0021872307675106476" free_energy=-150.47325405 energy=-150.4720539 pbc="T T T"
C        0.00000000       0.00000000      13.89523000      -0.00103000      -0.25083200       0.02768100
C        3.69000000       2.13042000      13.89525000      -0.21884100       0.12643100       0.02750900
C        2.46000000       0.00000000      13.88944000      -0.00100400       0.00065600       0.03586300
C        1.23000000       2.13042000      13.89523000       0.21677100       0.12642500       0.02767900
C       -0.00005000       1.42031000      13.93322000       0.00103900      -0.00065200       0.03780000
C       -1.23005000       3.55073000      13.88768000       0.08211900       0.04605500       0.03028700
C        2.45995000       1.42031000      13.88768000       0.00111300      -0.09421400       0.03028700
C        1.22995000       3.55073000      13.88765000      -0.07994900       0.04608800       0.03026500
C        0.00000000       0.00000000      10.11847000      -0.00000300      -0.32958300      -0.02917600
C        3.69000000       2.13042000      10.11848000      -0.28500400       0.16416000      -0.02916800
C        2.46000000       0.00000000      10.13279000       0.00043500      -0.00118500      -0.04021400
C        1.23000000       2.13042000      10.11847000       0.28549300       0.16343500      -0.02917700
C        1.23005000       0.71011000      10.11829000       0.28483900      -0.16508600      -0.03039800