17
Lattice="4.920000076 0.0 0.0 -2.460000038 4.260845053 0.0 0.0 0.0 24.0" Properties=species:S:1:pos:R:3:forces:R:3 stress="-0.011904037140722207 5.5561914238612765e-05 -2.9347575909903082e-05 5.5561914238612765e-05 -0.011829831838724582 2.8267794831125276e-05 -2.9347575909903082e-05 2.8267794831125276e-05 -0.008837652363776148" free_energy=-150.01872879 energy=-150.01778722 pbc="T T T"
C        0.00000000       0.00000000      13.75000000      -0.00150100      -0.31081700       0.09876800
C        3.69000000       2.13042000      13.75000000      -0.27111200       0.15616800       0.09886000
C        2.46000000       0.00000000      13.75000000      -0.00151600       0.00051700       0.07632100
C        1.23000000       2.13042000      13.75000000       0.26811000       0.15616800       0.09876300
C       -0.00005000       1.42031000      13.75000000       0.00413500      -0.00288900       2.77436100
C       -1.23005000       3.55073000      13.75000000       0.10771800       0.05707500       0.02452800
C        2.45995000       1.42031000      13.75000000       0.00399700      -0.12257600       0.02452600
C        1.22995000       3.55073000      13.75000000      -0.09972300       0.05707500       0.02456500
C        0.00000000       0.00000000      10.25000000      -0.00035900      -0.31648800      -0.14403900
C        3.69000000       2.13042000      10.25000000      -0.27391500       0.15731100      -0.14405000
C        2.46000000       0.00000000      10.25000000       0.00002900      -0.00138000       0.07075100
C        1.23000000       2.13042000      10.25000000       0.27360400       0.15653600      -0.14405900
C        1.23005000       0.71011000      10.25000000       0.27146700      -0.15780600      -0.14718400
C        0.00005000       2.84053000      10.25000000      -0.00554200       0.32228100      -0.14747600
C        3.69000000       0.71011000      10.25000000      -0.27613500      -0.15545900      -0.14737700
C        2.46000000       2.84053000      10.25000000       0.00103800       0.00457200       0.06767400
Li      -0.00005000       1.42031000      12.00000000      -0.00029500      -0.00028800      -2.48493200
17
Lattice="4.920000076 0.0 0.0 -2.460000038 4.260845053 0.0 0.0 0.0 24.0" Properties=species:S:1:pos:R:3:forces:R:3 stress="-0.012013325965516424 6.40129175950587e-05 -1.1047471152813368e-06 6.40129175950587e-05 -0.011936224603284388 7.552226042318742e-07 -1.1047471152813368e-06 7.552226042318742e-07 -0.0026078585505221728" free_energy=-150.27323377 energy=-150.27231956 pbc="T T T"
C        0.00000000       0.00000000      13.75476000      -0.00120000      -0.17416100       0.59853100
C        3.69000000       2.13042000      13.75477000      -0.15263200       0.08819100       0.59840000
C        2.46000000       0.00000000      13.75368000      -0.00118400       0.00074700       0.19342800
C        1.23000000       2.13042000      13.75476000       0.15027300       0.08821500       0.59851700
C       -0.00005000       1.42031000      13.88384000       0.00123100      -0.00076300      -0.84417300
C       -1.23005000       3.55073000      13.75118000       0.10022200       0.05638800      -0.01234700
C        2.45995000       1.42031000      13.75118000       0.00122900      -0.11503400      -0.01234600
C        1.22995000       3.55073000      13.75119000      -0.09770300       0.05635300      -0.01294100
C        0.00000000       0.00000000      10.24305000      -0.00001000      -0.39457600      -0.18321300
C        3.69000000       2.13042000      10.24305000      -0.34139600       0.19671300      -0.18332800
C        2.46000000       0.00000000      10.25341000       0.00037400      -0.00115500      -0.04296800
C        1.23000000       2.13042000      10.24305000       0.34176200       0.19592800      -0.18320900
C        1.23005000       0.71011000      10.24290000       0.34185500      -0.19799900      -0.18008200
C        0.00005000       2.84053000      10.24289000      -0.00194400       0.39763800      -0.18004500
C        3.69000000       0.71011000      10.24289000      -0.34244800      -0.19750700      -0.18010600
C        2.46000000       2.84053000      10.25326000       0.00144500       0.00110000      -0.03812100
Li      -0.00006000       1.42030000      11.88012000       0.00012800      -0.00007800       0.06400100
17
Lattice="4.920000076 0.0 0.0 -2.460000038 4.260845053 0.0 0.0 0.0 24.0" Properties=species:S:1:pos:R:3:forces:R:3 stress="-0.012778522501331458 6.425633645096814e-05 -7.427395859801078e-07 6.425633645096814e-05 -0.012701127788170506 5.118037483224272e-07 -7.427395859801078e-07 5.118037483224272e-07 -0.0032668745330876824" free_energy=-150.31649686 energy=-150.31557055 pbc="T T T"
C        0.00000000       0.00000000      13.77771000      -0.00117000      -0.25081700       0.06201500
C        3.69000000       2.13042000      13.77771000      -0.21900100       0.12651200       0.06211600
C        2.46000000       0.00000000      13.76110000      -0.00116600       0.00074300      -0.00042400
C        1.23000000       2.13042000      13.77771000       0.21667300       0.12651800       0.06201000
C       -0.00005000       1.42031000      13.85148000       0.00121200      -0.00075200       0.07655200
C       -1.23005000       3.55073000      13.75071000       0.09506100       0.05342800       0.30520700
C        2.45995000       1.42031000      13.75071000       0.00120900      -0.10908900       0.30520500
C        1.22995000       3.55073000      13.75069000      -0.09257500       0.05338900       0.30500200
C        0.00000000       0.00000000      10.23603000      -0.00000400      -0.38760400      -0.14500100
C        3.69000000       2.13042000      10.23602000      -0.33534400       0.19321900      -0.14508000
C        2.46000000       0.00000000      10.25177000       0.00038100      -0.00115900      -0.09064000
C        1.23000000       2.13042000      10.23603000       0.33573100       0.19243900      -0.14499700
C        1.23005000       0.71011000      10.23600000       0.33582300      -0.19451700      -0.14490600
C        0.00005000       2.84053000      10.23598000      -0.00195600       0.39068100      -0.14485800
C        3.69000000       0.71011000      10.23599000      -0.33642700      -0.19401800      -0.14489900
C        2.46000000       2.84053000      10.25180000       0.00143900       0.00110200      -0.08706500
Li      -0.00006000       1.42029000      11.88257000       0.00011300      -0.00007400      -0.13023800
17
Lattice="4.920000076 0.0 0.0 -2.460000038 4.260845053 0.0 0.0 0.0 24.0" Properties=species:S:1:pos:R:3:forces:R:3 stress="-0.01295533197184948 6.66905250100626e-05 1.7800784027019054e-05 6.66905250100626e-05 -0.012874591809797054 -2.155193101167489e-05 1.7800784027019054e-05 -2.155193101167489e-05 -0.0028526630214575654" free_energy=-150.33294956 energy=-150.3320129 pbc="T T T"
C        0.00000000       0.00000000      13.78087000      -0.00050300      -0.24767200       0.14963600
C        3.69000000       2.13042000      13.78088000      -0.21492800       0.12375600       0.14974600
C        2.46000000       0.00000000      13.76127000      -0.00050100      -0.00004500       0.16241700
C        1.23000000       2.13042000      13.78087000       0.21392900       0.12376000       0.14963300
C       -0.00005000       1.42031000      13.85379000       0.00187100      -0.00153700      -0.00005100
C       -1.23005000       3.55073000      13.76328000       0.09478200       0.05209200       0.14670900
C        2.45995000       1.42031000      13.76328000       0.00187700      -0.10878800       0.14670600
C        1.22995000       3.55073000      13.76325000      -0.09097500       0.05206300       0.14662100
C        0.00000000       0.00000000      10.22986000       0.00065900      -0.38805100      -0.11799900
C        3.69000000       2.13042000      10.22985000      -0.33437900       0.19225500      -0.11803900
C        2.46000000       0.00000000      10.24798000       0.00104600      -0.00194900      -0.12686000
C        1.23000000       2.13042000      10.22986000       0.33609800       0.19147800      -0.11799300
C        1.23005000       0.71011000      10.22984000       0.33065600      -0.19193800      -0.11260400
C        0.00005000       2.84053000      10.22983000      -0.00728500       0.39269000      -0.10873800
C        3.69000000       0.71011000      10.22983000      -0.33521800      -0.18757100      -0.10827600
C        2.46000000       2.84053000      10.24817000       0.00210400       0.00031400      -0.12731000
Li      -0.00005000       1.42029000      11.87727000       0.00076600      -0.00085700      -0.11360000
17
Lattice="4.920000076 0.0 0.0 -2.460000038 4.260845053 0.0 0.0 0.0 24.0" Properties=species:S:1:pos:R:3:forces:R:3 stress="-0.013356573627516011 6.386936288516339e-05 -8.675697684977728e-07 6.386936288516339e-05 -0.01327949723132048 2.4341885590944707e-07 -8.675697684977728e-07 2.4341885590944707e-07 -0.0026025532677651712" free_energy=-150.35811529 energy=-150.3571596 pbc="T T T"
C        0.00000000       0.00000000      13.79568000      -0.00118000      -0.25492400       0.11437800
C        3.69000000       2.13042000      13.79569000      -0.22254600       0.12855900       0.11438200
C        2.46000000       0.00000000      13.77643000      -0.00115500       0.00073000       0.13905000
C        1.23000000       2.13042000      13.79568000       0.22021600       0.12857600       0.11436600
C       -0.00005000       1.42031000      13.85438000       0.00115900      -0.00069200       0.12045000
C       -1.23005000       3.55073000      13.78039000       0.09035400       0.05064000       0.09176000
C        2.45995000       1.42031000      13.78039000       0.00126500      -0.10360500       0.09176500
C        1.22995000       3.55073000      13.78035000      -0.08785400       0.05065900       0.09181400
C        0.00000000       0.00000000      10.21719000       0.00003600      -0.38717800      -0.08955800
C        3.69000000       2.13042000      10.21717000      -0.33486900       0.19295900      -0.08822000
C        2.46000000       0.00000000      10.23515000       0.00024700      -0.00111800      -0.11415400
C        1.23000000       2.13042000      10.21719000       0.33534900       0.19218500      -0.08964700
C        1.23005000       0.71011000      10.21766000       0.33502100      -0.19405200      -0.10731800
C        0.00005000       2.84053000      10.21801000      -0.00207600       0.38983600      -0.11112400
C        3.69000000       0.71011000      10.21806000      -0.33577500      -0.19351200      -0.11166800
C        2.46000000       2.84053000      10.23534000       0.00149500       0.00106100      -0.12962400
Li       0.00002000       1.42021000      11.86525000       0.00031300      -0.00012300      -0.03665100
17
Lattice="4.920000076 0.0 0.0 -2.460000038 4.260845053 0.0 0.0 0.0 24.0" Properties=species:S:1:pos:R:3:forces:R:3 stress="-0.013221288917212491 6.422512890533873e-05 -3.183169654200462e-07 6.422512890533873e-05 -0.01314389420405154 -1.0610565514001541e-07 -3.183169654200462e-07 -1.0610565514001541e-07 -0.0017081887005899817" free_energy=-150.38653685 energy=-150.38555647 pbc="T T T"
C        0.00000000       0.00000000      13.81417000      -0.00115200      -0.25679200       0.07426400
C        3.69000000       2.13042000      13.81420000      -0.22412600       0.12947300       0.07419500
C        2.46000000       0.00000000      13.79622000      -0.00111500       0.00070700       0.11862700
C        1.23000000       2.13042000      13.81417000       0.22184900       0.12948900       0.07426700
C       -0.00005000       1.42031000      13.86481000       0.00109900      -0.00065100       0.10765600
C       -1.23005000       3.55073000      13.79880000       0.08701900       0.04873400       0.11053800
C        2.45995000       1.42031000      13.79880000       0.00124300      -0.09976600       0.11053600
C        1.22995000       3.55073000      13.79875000      -0.08461200       0.04878000       0.11059900
C        0.00000000       0.00000000      10.20192000      -0.00002000      -0.38231300      -0.12333000
C        3.69000000       2.13042000      10.20202000      -0.33063700       0.19050900      -0.12373800
C        2.46000000       0.00000000      10.21821000       0.00037200      -0.00118300      -0.08241300
C        1.23000000       2.13042000      10.20191000       0.33109500       0.18978900      -0.12322200
C        1.23005000       0.71011000      10.20103000       0.33036700      -0.19135100      -0.10078200
C        0.00005000       2.84053000      10.20120000      -0.00202800       0.38432800      -0.10208100
C        3.69000000       0.71011000      10.20121000      -0.33099200      -0.19078500      -0.10227600
C        2.46000000       2.84053000      10.21704000       0.00144400       0.00109400      -0.05635900
Li       0.00008000       1.42016000      11.85555000       0.00019400      -0.00006200       0.03351800
17
Lattice="4.920000076 0.0 0.0 -2.460000038 4.260845053 0.0 0.0 0.0 24.0" Properties=species:S:1:pos:R:3:forces:R:3 stress="-0.013417459549039005 6.424385343271637e-05 5.617358213294932e-08 6.424385343271637e-05 -0.013340021145314167 -3.994565840565286e-07 5.617358213294932e-08 -3.994565840565286e-07 -0.0013022596715699126" free_energy=-150.41240413 energy=-150.41139733 pbc="T T T"
C        0.00000000       0.00000000      13.83013000      -0.00113800      -0.25766300       0.03598400
C        3.69000000       2.13042000      13.83015000      -0.22486000       0.12989900       0.03587600
C        2.46000000       0.00000000      13.81495000      -0.00109100       0.00069200       0.12666100
C        1.23000000       2.13042000      13.83012000       0.22261300       0.12991600       0.03599100
C       -0.00005000       1.42031000      13.87419000       0.00105700      -0.00061700       0.14410000
C       -1.23005000       3.55073000      13.81713000       0.08477800       0.04742800       0.10879900
C        2.45995000       1.42031000      13.81713000       0.00124800      -0.09717300       0.10880000
C        1.22995000       3.55073000      13.81708000      -0.08241000       0.04750200       0.10890500
C        0.00000000       0.00000000      10.18547000      -0.00003500      -0.37539700      -0.10009300
C        3.69000000       2.13042000      10.18559000      -0.32459200       0.18702100      -0.10067900
C        2.46000000       0.00000000      10.20329000       0.00040500      -0.00120700      -0.09082700
C        1.23000000       2.13042000      10.18546000       0.32509200       0.18634100      -0.09998200
C        1.23005000       0.71011000      10.18543000       0.32443800      -0.18792000      -0.10140100
C        0.00005000       2.84053000      10.18559000      -0.00204800       0.37744200      -0.10238800
C        3.69000000       0.71011000      10.18559000      -0.32503600      -0.18731900      -0.10253400
C        2.46000000       2.84053000      10.20298000       0.00144400       0.00108300      -0.09026400
Li       0.00014000       1.42011000      11.84971000       0.00013700      -0.00002700       0.08305200
17
Lattice="4.920000076 0.0 0.0 -2.460000038 4.260845053 0.0 0.0 0.0 24.0" Properties=species:S:1:pos:R:3:forces:R:3 stress="-0.013484799190998155 6.42376119235905e-05 3.9321507493064525e-06 6.42376119235905e-05 -0.013407391994818952 -2.5715017598639024e-06 3.9321507493064525e-06 -2.5715017598639024e-06 -0.001213212060870936" free_energy=-150.4128619 energy=-150.41185399 pbc="T T T"
C        0.00000000       0.00000000      13.82786000      -0.00100100      -0.25333700       0.13540000
C        3.69000000       2.13042000      13.82788000      -0.22091000       0.12762000       0.13531900
C        2.46000000       0.00000000      13.81580000      -0.00095900       0.00061400       0.12220700
C        1.23000000       2.13042000      13.82786000       0.21893500       0.12763600       0.13540300
C       -0.00005000       1.42031000      13.87813000       0.00118900      -0.00070000       0.05682200
C       -1.23005000       3.55073000      13.81730000       0.08692300       0.04852400       0.07516900
C        2.45995000       1.42031000      13.81730000       0.00137100      -0.09958000       0.07517200
C        1.22995000       3.55073000      13.81726000      -0.08429700       0.04859100       0.07522800
C        0.00000000       0.00000000      10.18494000       0.00010600      -0.37117100      -0.10338400
C        3.69000000       2.13042000      10.18503000      -0.32073100       0.18479100      -0.10377500
C        2.46000000       0.00000000      10.20314000       0.00054400      -0.00128300      -0.10547000
C        1.23000000       2.13042000      10.18494000       0.32151200       0.18410900      -0.10331900
C        1.23005000       0.71011000      10.18488000       0.32090100      -0.18588100      -0.10480200
C        0.00005000       2.84053000      10.18499000      -0.00190600       0.37312300      -0.10540300
C        3.69000000       0.71011000      10.18499000      -0.32121500      -0.18528100      -0.10549400
C        2.46000000       2.84053000      10.20291000       0.00157700       0.00101000      -0.10540600
Li       0.00013000       1.42012000      11.85479000      -0.00204000       0.00121500       0.02633400
17
Lattice="4.920000076 0.0 0.0 -2.460000038 4.260845053 0.0 0.0 0.0 24.0" Properties=species:S:1:pos:R:3:forces:R:3 stress="-0.012389039848858094 6.416895532320578e-05 2.559018741612136e-07 6.416895532320578e-05 -0.012311720033806648 -5.30528275700077e-07 2.559018741612136e-07 -5.30528275700077e-07 0.0006063563700704326" free_energy=-150.45439415 energy=-150.4533128 pbc="T T T"
C        0.00000000       0.00000000      13.86178000      -0.00108000      -0.25537400       0.03757200
C        3.69000000       2.13042000      13.86179000      -0.22282100       0.12873000       0.03749000
C        2.46000000       0.00000000      13.85638000      -0.00104200       0.00066300       0.04216700
C        1.23000000       2.13042000      13.86177000       0.22066900       0.12873400       0.03758500
C       -0.00005000       1.42031000      13.90032000       0.00103500      -0.00059900       0.12069200
C       -1.23005000       3.55073000      13.85490000       0.08311900       0.04655100       0.02386600
C        2.45995000       1.42031000      13.85490000       0.00117000      -0.09529800       0.02386600
C        1.22995000       3.55073000      13.85486000      -0.08089500       0.04661800       0.02395600
C        0.00000000       0.00000000      10.15095000      -0.00002800      -0.35355000      -0.03629800
C        3.69000000       2.13042000      10.15106000      -0.30564800       0.17608500      -0.03711800
C        2.46000000       0.00000000      10.17002000       0.00047400      -0.00124000      -0.11202800
C        1.23000000       2.13042000      10.15095000       0.30617900       0.17541500      -0.03624400
C        1.23005000       0.71011000      10.15085000       0.30542700      -0.17694100      -0.03622900
C        0.00005000       2.84053000      10.15089000      -0.00202700       0.35545100      -0.03609200
C        3.69000000       0.71011000      10.15088000      -0.30599500      -0.17634100      -0.03603200
C        2.46000000       2.84053000      10.16980000       0.00143000       0.00108600      -0.08400300
Li       0.00013000       1.42010000      11.84792000       0.00003500       0.00001000       0.06685000
17
Lattice="4.920000076 0.0 0.0 -2.460000038 4.260845053 0.0 0.0 0.0 24.0" Properties=species:S:1:pos:R:3:forces:R:3 stress="-0.012207992393643598 6.405660815893989e-05 4.930792209447775e-07 6.405660815893989e-05 -0.012130791167265545 -6.678414764695085e-07 4.930792209447775e-07 -6.678414764695085e-07 0.0013681138343571066" free_energy=-150.46230554 energy=-150.46119021 pbc="T T T"
C        0.00000000       0.00000000      13.87252000      -0.00107000      -0.25142400       0.06685600
C        3.69000000       2.13042000      13.87253000      -0.21938200       0.12674600       0.06678400
C        2.46000000       0.00000000      13.86964000      -0.00102200       0.00065200       0.02008900
C        1.23000000       2.13042000      13.87251000       0.21725700       0.12675400       0.06686300
C       -0.00005000       1.42031000      13.91387000       0.00100300      -0.00058200       0.04327400
C       -1.23005000       3.55073000      13.86679000       0.08355000       0.04680300       0.00502700
C        2.45995000       1.42031000      13.86679000       0.00116500      -0.09579700       0.00503200
C        1.22995000       3.55073000      13.86676000      -0.08136000       0.04688400       0.00506800
C        0.00000000       0.00000000      10.13979000      -0.00002900      -0.34456600      -0.02946800
C        3.69000000       2.13042000      10.13986000      -0.29785300       0.17158800      -0.02980500
C        2.46000000       0.00000000      10.15439000       0.00048300      -0.00124500      -0.05056600
C        1.23000000       2.13042000      10.13980000       0.29840100       0.17092900      -0.02946300
C        1.23005000       0.71011000      10.13970000       0.29764400      -0.17245000      -0.04052100
C        0.00005000       2.84053000      10.13975000      -0.00203800       0.34643600      -0.04047600
C        3.69000000       0.71011000      10.13973000      -0.29819900      -0.17182800      -0.04042500
C        2.46000000       2.84053000      10.15593000       0.00146600       0.00106300      -0.06959200
Li       0.00016000       1.42007000      11.84964000      -0.00001500       0.00003700       0.05132600
17
Lattice="4.920000076 0.0 0.0 -2.460000038 4.260845053 0.0 0.0 0.0 24.0" Properties=species:S:1:pos:R:3:forces:R:3 stress="-0.012265258239873575 6.338252517334449e-05 3.120754562941629e-07 6.338252517334449e-05 -0.012187682522947973 3.1207545629416294e-08 3.120754562941629e-07 3.1207545629416294e-08 0.002189415295704707" free_energy=-150.47400732 energy=-150.47280586 pbc="T T T"
C        0.00000000       0.00000000      13.89629000      -0.00101700      -0.25100100       0.03427600
C        3.69000000       2.13042000      13.89630000      -0.21891600       0.12645600       0.03425700
C        2.46000000       0.00000000      13.89484000      -0.00095600       0.00058900      -0.00896600
C        1.23000000       2.13042000      13.89629000       0.21689800       0.12646600       0.03428100
C       -0.00005000       1.42031000      13.93337000       0.00095400      -0.00057700       0.04415100
C       -1.23005000       3.55073000      13.88985000       0.08207300       0.04591000       0.03823800
C        2.45995000       1.42031000      13.88985000       0.00117400      -0.09410700       0.03824300
C        1.22995000       3.55073000      13.88982000      -0.07990600       0.04601500       0.03825900
C        0.00000000       0.00000000      10.11776000      -0.00002500      -0.33028900      -0.04480400
C        3.69000000       2.13042000      10.11780000      -0.28542200       0.16439500      -0.04484100
C        2.46000000       0.00000000      10.12907000       0.00052700      -0.00129300      -0.01907000
C        1.23000000       2.13042000      10.11777000       0.28602200       0.16376200      -0.04483700
C        1.23005000       0.71011000      10.11688000       0.28526200      -0.16533200      -0.03538300
C        0.00005000       2.84053000      10.11691000      -0.00203600       0.33203400      -0.03521900
C        3.69000000       0.71011000      10.11688000      -0.28575100      -0.16467800      -0.03515100
C        2.46000000       2.84053000      10.13009000       0.00152900       0.00099200      -0.01837700
Li       0.00023000       1.42002000      11.85024000      -0.00041100       0.00065600       0.02494200
17
Lattice="4.920000076 0.0 0.0 -2.460000038 4.260845053 0.0 0.0 0.0 24.0" Properties=species:S:1:pos:R:3:forces:R:3 stress="-0.012453077732489654 6.511142320121415e-05 1.2021146576451154e-05 6.511142320121415e-05 -0.012374728068432442 -7.246392095150463e-06 1.2021146576451154e-05 -7.246392095150463e-06 0.0024304811026736963" free_energy=-150.47733235 energy=-150.47610078 pbc="T T T"
C        0.00000000       0.00000000      13.90263000      -0.00153100      -0.25009300       0.04244300
C        3.69000000       2.13042000      13.90264000      -0.21892500       0.12648500       0.04244600
C        2.46000000       0.00000000      13.89917000      -0.00147200       0.00091600       0.02324200
C        1.23000000       2.13042000      13.90263000       0.21587800       0.12649400       0.04244600
C       -0.00005000       1.42031000      13.93934000       0.00898400      -0.00520100       0.03139400
C       -1.23005000       3.55073000      13.89609000       0.08119100       0.04604700       0.02738400
C        2.45995000       1.42031000      13.89609000       0.00063900      -0.09338300       0.02738500
C        1.22995000       3.55073000      13.89606000      -0.08008600       0.04614800       0.02739200
C        0.00000000       0.00000000      10.11132000      -0.00054900      -0.32559200      -0.04058300
C        3.69000000       2.13042000      10.11135000      -0.28219300       0.16255500      -0.04055600
C        2.46000000       0.00000000      10.12325000      -0.00000800      -0.00094900      -0.02320600
C        1.23000000       2.13042000      10.11133000       0.28173100       0.16191200      -0.04063900
C        1.23005000       0.71011000      10.11073000       0.28104600      -0.16288200      -0.03465100
C        0.00005000       2.84053000      10.11076000      -0.00255900       0.32811300      -0.03460400
C        3.69000000       0.71011000      10.11074000      -0.28258800      -0.16223200      -0.03454600
C        2.46000000       2.84053000      10.12414000       0.00100800       0.00132000      -0.02619200
Li       0.00022000       1.42005000      11.85173000      -0.00056500       0.00034200       0.01084500
17
Lattice="4.920000076 0.0 0.0 -2.460000038 4.260845053 0.0 0.0 0.0 24.0" Properties=species:S:1:pos:R:3:forces:R:3 stress="-0.01245102427598724 6.36446685566316e-05 7.24015058602458e-07 6.36446685566316e-05 -0.012374409751467023 -7.052905312248082e-07 7.24015058602458e-07 -7.052905312248082e-07 0.002875213593929382" free_energy=-150.48592988 energy=-150.48462162 pbc="T T T"
C        0.00000000       0.00000000      13.91808000      -0.00099900      -0.25029700       0.03667100
C        3.69000000       2.13042000      13.91808000      -0.21830900       0.12612900       0.03670400
C        2.46000000       0.00000000      13.91396000      -0.00093900       0.00061000       0.04214200
C        1.23000000       2.13042000      13.91808000       0.21632300       0.12613700       0.03667300
C       -0.00005000       1.42031000      13.95225000       0.00091500      -0.00054600       0.00349000
C       -1.23005000       3.55073000      13.91108000       0.08060400       0.04516300       0.05166800
C        2.45995000       1.42031000      13.91108000       0.00111100      -0.09243600       0.05166800
C        1.22995000       3.55073000      13.91106000      -0.07854700       0.04525800       0.05167200
C        0.00000000       0.00000000      10.09622000      -0.00005100      -0.31726300      -0.03813600
C        3.69000000       2.13042000      10.09625000      -0.27426400       0.15798500      -0.03805400
C        2.46000000       0.00000000      10.10830000       0.00047800      -0.00122300      -0.03995500
C        1.23000000       2.13042000      10.09624000       0.27477700       0.15732900      -0.03819000
C        1.23005000       0.71011000      10.09593000       0.27413300      -0.15889900      -0.03790400
C        0.00005000       2.84053000      10.09596000      -0.00204700       0.31924800      -0.03787200
C        3.69000000       0.71011000      10.09594000      -0.27465700      -0.15825500      -0.03783300
C        2.46000000       2.84053000      10.10899000       0.00152200       0.00101500      -0.04259300
Li       0.00021000       1.42005000      11.85252000      -0.00005200       0.00004500      -0.00015400
17
Lattice="4.920000076 0.0 0.0 -2.460000038 4.260845053 0.0 0.0 0.0 24.0" Properties=species:S:1:pos:R:3:forces:R:3 stress="-0.01253630201517418 6.368835912051278e-05 6.740829855953919e-07 6.368835912051278e-05 -0.012459631317071833 -6.865660038471585e-07 6.740829855953919e-07 -6.865660038471585e-07 0.002842570501201012" free_energy=-150.48326794 energy=-150.48198132 pbc="T T T"
C        0.00000000       0.00000000      13.91388000      -0.00100500      -0.24963600       0.03364200
C        3.69000000       2.13042000      13.91388000      -0.21774800       0.12580600       0.03367900
C        2.46000000       0.00000000      13.90931000      -0.00095000       0.00061600       0.02995900
C        1.23000000       2.13042000      13.91388000       0.21574700       0.12581100       0.03364500
C       -0.00005000       1.42031000      13.94951000       0.00092700      -0.00055300      -0.00167600
C       -1.23005000       3.55073000      13.90630000       0.08096100       0.04536300       0.05753400
C        2.45995000       1.42031000      13.90630000       0.00111700      -0.09284400       0.05753500
C        1.22995000       3.55073000      13.90627000      -0.07888400       0.04545300       0.05753400
C        0.00000000       0.00000000      10.10032000      -0.00004500      -0.31957100      -0.03418200
C        3.69000000       2.13042000      10.10035000      -0.27625900       0.15913500      -0.03412400
C        2.46000000       0.00000000      10.11296000       0.00047700      -0.00122400      -0.04126700
C        1.23000000       2.13042000      10.10034000       0.27677600       0.15847400      -0.03424200
C        1.23005000       0.71011000      10.10013000       0.27615200      -0.16006200      -0.03696600