17
Lattice="4.920000076 0.0 0.0 -2.460000038 4.260845053 0.0 0.0 0.0 24.0" Properties=species:S:1:pos:R:3:forces:R:3 stress="-0.011734511511354092 6.561074393128481e-05 -9.67433914511905e-07 6.561074393128481e-05 -0.011655506488838662 9.362263688824888e-07 -9.67433914511905e-07 9.362263688824888e-07 -0.03479954037287123" free_energy=-148.06941106 energy=-148.06864253 pbc="T T T"
C        0.00000000       0.00000000      13.50000000      -0.00132600      -0.43211000       0.47743700
C        3.69000000       2.13042000      13.50000000      -0.37636800       0.21734500       0.47764600
C        2.46000000       0.00000000      13.50000000      -0.00149500       0.00091900       0.21088200
C        1.23000000       2.13042000      13.50000000       0.37359900       0.21727400       0.47744100
C       -0.00005000       1.42031000      13.50000000       0.00144800      -0.00088400       7.75104600
C       -1.23005000       3.55073000      13.50000000       0.15114500       0.08556800       0.22635400
C        2.45995000       1.42031000      13.50000000       0.00143300      -0.17374100       0.22635300
C        1.22995000       3.55073000      13.50000000      -0.14813300       0.08548700       0.22632000
C        0.00000000       0.00000000      10.50000000      -0.00015400      -0.52301400      -0.53938700
C        3.69000000       2.13042000      10.50000000      -0.45270900       0.26096600      -0.53949100
C        2.46000000       0.00000000      10.50000000       0.00037300      -0.00114900      -0.05459400
C        1.23000000       2.13042000      10.50000000       0.45292100       0.26026500      -0.53940400
C        1.23005000       0.71011000      10.50000000       0.45092800      -0.26095700      -0.52707200
C        0.00005000       2.84053000      10.50000000      -0.00185600       0.52364000      -0.52739000
C        3.69000000       0.71011000      10.50000000      -0.45147500      -0.26054300      -0.52734500
C        2.46000000       2.84053000      10.50000000       0.00146100       0.00111300      -0.07435600
Li      -0.00005000       1.42031000      12.00000000       0.00021000      -0.00017900      -6.74444100
17
Lattice="4.920000076 0.0 0.0 -2.460000038 4.260845053 0.0 0.0 0.0 24.0" Properties=species:S:1:pos:R:3:forces:R:3 stress="-0.01378639515346996 6.166611016372659e-05 -2.3842564860874046e-06 6.166611016372659e-05 -0.013712520651456008 1.8474867012614446e-06 -2.3842564860874046e-06 1.8474867012614446e-06 -0.01253187678520393" free_energy=-148.25209784 energy=-148.25155929 pbc="T T T"
C        0.00000000       0.00000000      13.52303000      -0.00177100       0.30799800       1.80399900
C        3.69000000       2.13042000      13.52304000       0.26458600      -0.15273000       1.80363200
C        2.46000000       0.00000000      13.51017000      -0.00156300       0.00093400       0.63279100
C        1.23000000       2.13042000      13.52303000      -0.26760400      -0.15243100       1.80399300
C       -0.00005000       1.42031000      13.87393000       0.00159000      -0.00093600      -4.47385300
C       -1.23005000       3.55073000      13.51092000       0.04905300       0.02642400       0.08405000
C        2.45995000       1.42031000      13.51092000       0.00162400      -0.05571200       0.08404800
C        1.22995000       3.55073000      13.51092000      -0.04573400       0.02638500       0.08315000
C        0.00000000       0.00000000      10.47398000      -0.00014800      -1.11450500      -0.91859800
C        3.69000000       2.13042000      10.47397000      -0.96515300       0.55685400      -0.91883500
C        2.46000000       0.00000000      10.49737000       0.00025100      -0.00106600      -0.29113000
C        1.23000000       2.13042000      10.47398000       0.96513500       0.55603100      -0.91858600
C        1.23005000       0.71011000      10.47457000       0.95903500      -0.55433300      -0.93221300
C        0.00005000       2.84053000      10.47456000      -0.00174400       1.11040600      -0.93250100
C        3.69000000       0.71011000      10.47456000      -0.95954500      -0.55399300      -0.93240900
C        2.46000000       2.84053000      10.49641000       0.00159300       0.00102000      -0.29885500
Li      -0.00004000       1.42030000      11.67463000       0.00039400      -0.00034800       4.32131800
17
Lattice="4.920000076 0.0 0.0 -2.460000038 4.260845053 0.0 0.0 0.0 24.0" Properties=species:S:1:pos:R:3:forces:R:3 stress="-0.013078177354465115 6.373204968439396e-05 -1.086022587903687e-06 6.373204968439396e-05 -0.013001562829944899 9.299848597566055e-07 -1.086022587903687e-06 9.299848597566055e-07 -0.014837221871412794" free_energy=-149.29374639 energy=-149.29314502 pbc="T T T"
C        0.00000000       0.00000000      13.57498000      -0.00156600      -0.19311100       0.34638200
C        3.69000000       2.13042000      13.57498000      -0.16946800       0.09787900       0.34652200
C        2.46000000       0.00000000      13.52840000      -0.00151700       0.00092300       0.15186000
C        1.23000000       2.13042000      13.57498000       0.16646500       0.09795200       0.34637600
C       -0.00005000       1.42031000      13.74510000       0.00150900      -0.00090100      -1.00203700
C       -1.23005000       3.55073000      13.51334000       0.09392200       0.05240400       0.77820900
C        2.45995000       1.42031000      13.51334000       0.00155200      -0.10756200       0.77820700
C        1.22995000       3.55073000      13.51331000      -0.09069700       0.05233600       0.77772500
C        0.00000000       0.00000000      10.44753000      -0.00014800      -0.76050400      -0.54964200
C        3.69000000       2.13042000      10.44751000      -0.65842500       0.37975500      -0.54979200
C        2.46000000       0.00000000      10.48898000       0.00031000      -0.00111400      -0.52094300
C        1.23000000       2.13042000      10.44752000       0.65858300       0.37902400      -0.54965800
C        1.23005000       0.71011000      10.44773000       0.65405500      -0.37824400      -0.52484700
C        0.00005000       2.84053000      10.44770000      -0.00180100       0.75808100      -0.52474200
C        3.69000000       0.71011000      10.44771000      -0.65449100      -0.37780900      -0.52476200
C        2.46000000       2.84053000      10.48781000       0.00154300       0.00104800      -0.47456200
Li      -0.00003000       1.42029000      11.79907000       0.00017500      -0.00015600       1.69570400
17
Lattice="4.920000076 0.0 0.0 -2.460000038 4.260845053 0.0 0.0 0.0 24.0" Properties=species:S:1:pos:R:3:forces:R:3 stress="-0.013141122973999648 6.44186156882411e-05 -1.1921282430437023e-06 6.44186156882411e-05 -0.013063678328765687 9.487093871342552e-07 -1.1921282430437023e-06 9.487093871342552e-07 -0.014871924662152702" free_energy=-149.50417704 energy=-149.50354988 pbc="T T T"
C        0.00000000       0.00000000      13.58060000      -0.00151500      -0.23137100       0.52730000
C        3.69000000       2.13042000      13.58061000      -0.20258700       0.11701000       0.52746300
C        2.46000000       0.00000000      13.53169000      -0.00151300       0.00093200       0.53134900
C        1.23000000       2.13042000      13.58060000       0.19963100       0.11705000       0.52729400
C       -0.00005000       1.42031000      13.72491000       0.00149900      -0.00090800      -0.27594400
C       -1.23005000       3.55073000      13.54690000       0.10518700       0.05891600       0.32872300
C        2.45995000       1.42031000      13.54690000       0.00153800      -0.12057900       0.32872200
C        1.22995000       3.55073000      13.54686000      -0.10202500       0.05886900       0.32850400
C        0.00000000       0.00000000      10.42836000      -0.00014200      -0.64124000      -0.37788100
C        3.69000000       2.13042000      10.42834000      -0.55510900       0.32011400      -0.37791100
C        2.46000000       0.00000000      10.46776000       0.00032200      -0.00111300      -0.49111800
C        1.23000000       2.13042000      10.42835000       0.55531800       0.31939900      -0.37788800
C        1.23005000       0.71011000      10.42971000       0.55136900      -0.31896700      -0.40613400
C        0.00005000       2.84053000      10.42970000      -0.00182700       0.63947600      -0.40604900
C        3.69000000       0.71011000      10.42970000      -0.55180400      -0.31850900      -0.40606900
C        2.46000000       2.84053000      10.46865000       0.00153100       0.00103800      -0.50155100
Li      -0.00002000       1.42029000      11.85037000       0.00012800      -0.00011800       0.52118700
17
Lattice="4.920000076 0.0 0.0 -2.460000038 4.260845053 0.0 0.0 0.0 24.0" Properties=species:S:1:pos:R:3:forces:R:3 stress="-0.013324985349829916 6.504276660082942e-05 -7.989131681130572e-07 6.504276660082942e-05 -0.013246716825391337 6.428754399659756e-07 -7.989131681130572e-07 6.428754399659756e-07 -0.014027198817055664" free_energy=-149.74489734 energy=-149.74418807 pbc="T T T"
C        0.00000000       0.00000000      13.62657000      -0.00137800      -0.30515100       0.27924200
C        3.69000000       2.13042000      13.62660000      -0.26633500       0.15382700       0.27928900
C        2.46000000       0.00000000      13.58187000      -0.00140800       0.00088100       0.36504700
C        1.23000000       2.13042000      13.62657000       0.26360300       0.15384000       0.27923700
C       -0.00005000       1.42031000      13.70693000       0.00139000      -0.00084900       1.22751800
C       -1.23005000       3.55073000      13.59599000       0.11001300       0.06180400       0.27195900
C        2.45995000       1.42031000      13.59599000       0.00143800      -0.12621800       0.27195700
C        1.22995000       3.55073000      13.59592000      -0.10706300       0.06176300       0.27215300
C        0.00000000       0.00000000      10.38576000      -0.00011400      -0.50323500      -0.31488500
C        3.69000000       2.13042000      10.38574000      -0.43551500       0.25106100      -0.31469800
C        2.46000000       0.00000000      10.41047000       0.00035700      -0.00113600      -0.26870900
C        1.23000000       2.13042000      10.38576000       0.43581500       0.25036100      -0.31486000
C        1.23005000       0.71011000      10.38507000       0.43371700      -0.25104000      -0.29228900
C        0.00005000       2.84053000      10.38507000      -0.00190000       0.50366400      -0.29233800
C        3.69000000       0.71011000      10.38507000      -0.43421600      -0.25055100      -0.29233300
C        2.46000000       2.84053000      10.41148000       0.00150000       0.00106700      -0.25064600
Li      -0.00001000       1.42027000      11.90913000       0.00009700      -0.00008900      -0.90564400
17
Lattice="4.920000076 0.0 0.0 -2.460000038 4.260845053 0.0 0.0 0.0 24.0" Properties=species:S:1:pos:R:3:forces:R:3 stress="-0.013449946604039224 7.371846428580718e-05 1.841245192135561e-05 7.371846428580718e-05 -0.013361672940471858 -1.0423320240225041e-05 1.841245192135561e-05 -1.0423320240225041e-05 -0.012820353095493129" free_energy=-149.73562663 energy=-149.73497815 pbc="T T T"
C        0.00000000       0.00000000      13.61938000      -0.00049800      -0.26000700       0.35923300
C        3.69000000       2.13042000      13.61940000      -0.22589100       0.13047300       0.35926500
C        2.46000000       0.00000000      13.57412000      -0.00049700       0.00035100       0.32568200
C        1.23000000       2.13042000      13.61938000       0.22494500       0.13050000       0.35922900
C       -0.00005000       1.42031000      13.73542000       0.00240800      -0.00143400       0.20517800
C       -1.23005000       3.55073000      13.58313000       0.10586800       0.05822100       0.33459400
C        2.45995000       1.42031000      13.58313000       0.00247300      -0.12083100       0.33459300
C        1.22995000       3.55073000      13.58307000      -0.10085200       0.05818200       0.33454500
C        0.00000000       0.00000000      10.39340000       0.00083900      -0.56134600      -0.33008100
C        3.69000000       2.13042000      10.39339000      -0.48442300       0.27930200      -0.33001200
C        2.46000000       0.00000000      10.42457000       0.00130300      -0.00168000      -0.31271700
C        1.23000000       2.13042000      10.39340000       0.48661600       0.27859800      -0.33007100
C        1.23005000       0.71011000      10.39370000       0.47600800      -0.27545600      -0.34193300
C        0.00005000       2.84053000      10.39369000      -0.00916500       0.56492800      -0.34177500
C        3.69000000       0.71011000      10.39369000      -0.48266100      -0.27966000      -0.34877500
C        2.46000000       2.84053000      10.42571000       0.00247600       0.00050100      -0.30816800
Li      -0.00001000       1.42028000      11.87142000       0.00105300      -0.00064000       0.03121700
17
Lattice="4.920000076 0.0 0.0 -2.460000038 4.260845053 0.0 0.0 0.0 24.0" Properties=species:S:1:pos:R:3:forces:R:3 stress="-0.01221612508003462 6.661562690055203e-05 3.713697929900539e-06 6.661562690055203e-05 -0.012140971068649862 1.1047471152813368e-06 3.713697929900539e-06 1.1047471152813368e-06 -0.006719096921177593" free_energy=-150.0656731 energy=-150.06491589 pbc="T T T"
C        0.00000000       0.00000000      13.69922000      -0.00128800      -0.25017400       0.21369600
C        3.69000000       2.13042000      13.69926000      -0.21854400       0.12632900       0.21354700
C        2.46000000       0.00000000      13.64946000      -0.00122100       0.00084500       0.39974200
C        1.23000000       2.13042000      13.69922000       0.21605700       0.12638000       0.21372800
C       -0.00005000       1.42031000      13.79548000       0.00113900      -0.00070700       0.02950300
C       -1.23005000       3.55073000      13.66734000       0.09948300       0.05571300       0.18703700
C        2.45995000       1.42031000      13.66734000       0.00137900      -0.11412200       0.18701100
C        1.22995000       3.55073000      13.66727000      -0.09684200       0.05578000       0.18708500
C        0.00000000       0.00000000      10.31457000      -0.00035100      -0.46829700      -0.17524800
C        3.69000000       2.13042000      10.31457000      -0.40513900       0.23329700      -0.17480100
C        2.46000000       0.00000000      10.34787000       0.00120300      -0.00069600      -0.33002300
C        1.23000000       2.13042000      10.31457000       0.40546400       0.23288600      -0.17057800
C        1.23005000       0.71011000      10.31300000       0.40354000      -0.23328600      -0.14165000
C        0.00005000       2.84053000      10.31303000      -0.00166800       0.46832400      -0.14139600
C        3.69000000       0.71011000      10.31160000      -0.40305800      -0.23249200      -0.12532800
C        2.46000000       2.84053000      10.35079000       0.00147800       0.00094300      -0.33051700
Li       0.00021000       1.42014000      11.87543000      -0.00163200      -0.00072300      -0.04180900
17
Lattice="4.920000076 0.0 0.0 -2.460000038 4.260845053 0.0 0.0 0.0 24.0" Properties=species:S:1:pos:R:3:forces:R:3 stress="-0.012950937949424859 6.569812505904718e-05 4.088188477453534e-06 6.569812505904718e-05 -0.01287499126638111 1.497962190211982e-07 4.088188477453534e-06 1.497962190211982e-07 -0.002497770812559844" free_energy=-150.34116398 energy=-150.3402194 pbc="T T T"
C        0.00000000       0.00000000      13.79383000      -0.00117100      -0.25202900       0.03443300
C        3.69000000       2.13042000      13.79386000      -0.21995800       0.12711900       0.03426700
C        2.46000000       0.00000000      13.75431000      -0.00107100       0.00071700       0.28258300
C        1.23000000       2.13042000      13.79382000       0.21770900       0.12717200       0.03442200
C       -0.00005000       1.42031000      13.86112000       0.00097200      -0.00051100      -0.00429100
C       -1.23005000       3.55073000      13.76705000       0.09067300       0.05073000       0.19300700
C        2.45995000       1.42031000      13.76704000       0.00127300      -0.10392400       0.19308700
C        1.22995000       3.55073000      13.76697000      -0.08832000       0.05084200       0.19330200
C        0.00000000       0.00000000      10.22227000      -0.00028400      -0.38558400      -0.06720300
C        3.69000000       2.13042000      10.22232000      -0.33334900       0.19189000      -0.06692200
C        2.46000000       0.00000000      10.24566000       0.00123700      -0.00080800      -0.20977200
C        1.23000000       2.13042000      10.22262000       0.33392000       0.19153900      -0.06559700
C        1.23005000       0.71011000      10.22157000       0.33289700      -0.19253400      -0.07232400
C        0.00005000       2.84053000      10.22164000      -0.00181700       0.38679100      -0.07232400
C        3.69000000       0.71011000      10.22004000      -0.33281200      -0.19180100      -0.05611900
C        2.46000000       2.84053000      10.25050000       0.00159500       0.00101400      -0.25481600
Li       0.00030000       1.41996000      11.87538000      -0.00149400      -0.00062200      -0.09573500
17
Lattice="4.920000076 0.0 0.0 -2.460000038 4.260845053 0.0 0.0 0.0 24.0" Properties=species:S:1:pos:R:3:forces:R:3 stress="-0.012781505942693632 6.484303830880117e-05 2.690090433255684e-06 6.484303830880117e-05 -0.012704697931390512 -9.923999510154382e-07 2.690090433255684e-06 -9.923999510154382e-07 1.074787871477097e-05" free_energy=-150.44598041 energy=-150.44491268 pbc="T T T"
C        0.00000000       0.00000000      13.85298000      -0.00110600      -0.25006100       0.10508100
C        3.69000000       2.13042000      13.85300000      -0.21819100       0.12607900       0.10493500
C        2.46000000       0.00000000      13.83430000      -0.00101800       0.00063900       0.19631100
C        1.23000000       2.13042000      13.85298000       0.21603100       0.12610900       0.10506400
C       -0.00005000       1.42031000      13.90372000       0.00096500      -0.00040500       0.03005800
C       -1.23005000       3.55073000      13.84324000       0.08769300       0.04906300       0.00284500
C        2.45995000       1.42031000      13.84325000       0.00122400      -0.10042500       0.00288900
C        1.22995000       3.55073000      13.84318000      -0.08545400       0.04918400       0.00312400
C        0.00000000       0.00000000      10.16078000      -0.00014700      -0.34417400      -0.07198200
C        3.69000000       2.13042000      10.16087000      -0.29737900       0.17125400      -0.07196600
C        2.46000000       0.00000000      10.17105000       0.00080500      -0.00116400      -0.07071700
C        1.23000000       2.13042000      10.16134000       0.29806300       0.17080900      -0.07449700
C        1.23005000       0.71011000      10.15916000       0.29746300      -0.17219500      -0.04707400
C        0.00005000       2.84053000      10.15926000      -0.00198600       0.34600500      -0.04725600
C        3.69000000       0.71011000      10.15832000      -0.29776300      -0.17149100      -0.02786000
C        2.46000000       2.84053000      10.17357000       0.00165700       0.00106100      -0.06744600
Li       0.00029000       1.41981000      11.86899000      -0.00085600      -0.00028800      -0.07150800
17
Lattice="4.920000076 0.0 0.0 -2.460000038 4.260845053 0.0 0.0 0.0 24.0" Properties=species:S:1:pos:R:3:forces:R:3 stress="-0.012361483586067317 6.21467063664196e-05 5.991848760847927e-06 6.21467063664196e-05 -0.012285224827567276 -4.656165807908911e-06 5.991848760847927e-06 -4.656165807908911e-06 0.0005720218283689489" free_energy=-150.45554083 energy=-150.45444 pbc="T T T"
C        0.00000000       0.00000000      13.86509000      -0.00093900      -0.25295300      -0.00393600
C        3.69000000       2.13042000      13.86511000      -0.22042000       0.12732400      -0.00405600
C        2.46000000       0.00000000      13.85231000      -0.00085000       0.00049400       0.05516500
C        1.23000000       2.13042000      13.86509000       0.21859600       0.12735500      -0.00396700
C       -0.00005000       1.42031000      13.91016000       0.00116500      -0.00049200       0.07673900
C       -1.23005000       3.55073000      13.85093000       0.08557500       0.04764900       0.10334500
C        2.45995000       1.42031000      13.85093000       0.00141600      -0.09783600       0.10334900
C        1.22995000       3.55073000      13.85088000      -0.08295100       0.04777000       0.10346700
C        0.00000000       0.00000000      10.15035000       0.00021200      -0.34090200      -0.05738300
C        3.69000000       2.13042000      10.15045000      -0.29418800       0.16961900      -0.05746400
C        2.46000000       0.00000000      10.15999000       0.00059900      -0.00150300       0.00953000
C        1.23000000       2.13042000      10.15080000       0.29524300       0.16897200      -0.06206900
C        1.23005000       0.71011000      10.15000000       0.29173700      -0.16907000      -0.05906700
C        0.00005000       2.84053000      10.15010000      -0.00195000       0.34281100      -0.06693300
C        3.69000000       0.71011000      10.15018000      -0.29509300      -0.17016900      -0.06960700
C        2.46000000       2.84053000      10.16267000       0.00186300       0.00095700      -0.01590300
Li       0.00025000       1.41978000      11.86495000      -0.00001500      -0.00002700      -0.05120800
17
Lattice="4.920000076 0.0 0.0 -2.460000038 4.260845053 0.0 0.0 0.0 24.0" Properties=species:S:1:pos:R:3:forces:R:3 stress="-0.012089104127813773 6.547967223964126e-05 3.6575243477675893e-06 6.547967223964126e-05 -0.01201290778440499 -6.690897782946853e-06 3.6575243477675893e-06 -6.690897782946853e-06 0.0019038912192320514" free_energy=-150.46821421 energy=-150.46704512 pbc="T T T"
C        0.00000000       0.00000000      13.88451000      -0.00095900      -0.25027500       0.04244700
C        3.69000000       2.13042000      13.88452000      -0.21805300       0.12584500       0.04235900
C        2.46000000       0.00000000      13.87833000      -0.00088000       0.00038500       0.02748400
C        1.23000000       2.13042000      13.88450000       0.21617000       0.12586400       0.04245000
C       -0.00005000       1.42031000      13.92720000       0.00105200      -0.00055800       0.02222300
C       -1.23005000       3.55073000      13.87619000       0.08451000       0.04702800       0.02563500
C        2.45995000       1.42031000      13.87620000       0.00129700      -0.09680200       0.02560400
C        1.22995000       3.55073000      13.87616000      -0.08212300       0.04714900       0.02569400
C        0.00000000       0.00000000      10.12866000       0.00008000      -0.33027800      -0.03161800
C        3.69000000       2.13042000      10.12875000      -0.28498700       0.16418300      -0.03281000
C        2.46000000       0.00000000      10.13914000       0.00060900      -0.00168700       0.01994600
C        1.23000000       2.13042000      10.12891000       0.28581200       0.16355700      -0.03470900
C        1.23005000       0.71011000      10.12840000       0.28545400      -0.16556200      -0.03817300
C        0.00005000       2.84053000      10.12817000      -0.00197600       0.33183800      -0.03488800
C        3.69000000       0.71011000      10.12840000      -0.28575200      -0.16486800      -0.03846100
C        2.46000000       2.84053000      10.14077000       0.00169800       0.00083400      -0.01630700
Li       0.00026000       1.41974000      11.86119000      -0.00195100       0.00334700      -0.04687600
17
Lattice="4.920000076 0.0 0.0 -2.460000038 4.260845053 0.0 0.0 0.0 24.0" Properties=species:S:1:pos:R:3:forces:R:3 stress="-0.012412333160915888 6.376325723002337e-05 2.1845281940591405e-07 6.376325723002337e-05 -0.012335231798683854 -1.3044754073096007e-06 2.1845281940591405e-07 -1.3044754073096007e-06 0.0024394002192145835" free_energy=-150.47623972 energy=-150.4750114 pbc="T T T"
C        0.00000000       0.00000000      13.90065000      -0.00102000      -0.25016100       0.03706800
C        3.69000000       2.13042000      13.90065000      -0.21821900       0.12608800       0.03709500
C        2.46000000       0.00000000      13.89669000      -0.00098300       0.00061100       0.01341900
C        1.23000000       2.13042000      13.90064000       0.21618200       0.12608900       0.03710500
C       -0.00005000       1.42031000      13.93883000       0.00098400      -0.00050200       0.04221500
C       -1.23005000       3.55073000      13.89307000       0.08247400       0.04620300       0.03489300
C        2.45995000       1.42031000      13.89308000       0.00111500      -0.09452100       0.03484300
C        1.22995000       3.55073000      13.89304000      -0.08034100       0.04625900       0.03491100
C        0.00000000       0.00000000      10.11289000      -0.00001700      -0.32438800      -0.03824700
C        3.69000000       2.13042000      10.11290000      -0.28035900       0.16154600      -0.03827800
C        2.46000000       0.00000000      10.12665000       0.00044200      -0.00131900      -0.05350100
C        1.23000000       2.13042000      10.11286000       0.28086100       0.16084400      -0.03811500
C        1.23005000       0.71011000      10.11223000       0.28038200      -0.16247900      -0.02050300
C        0.00005000       2.84053000      10.11218000      -0.00203500       0.32644500      -0.01957600
C        3.69000000       0.71011000      10.11228000      -0.28095700      -0.16187900      -0.02079300
C        2.46000000       2.84053000      10.12529000       0.00146900       0.00099600      -0.01513100
Li       0.00011000       1.41996000      11.85606000       0.00002300       0.00016700      -0.02740600
17
Lattice="4.920000076 0.0 0.0 -2.460000038 4.260845053 0.0 0.0 0.0 24.0" Properties=species:S:1:pos:R:3:forces:R:3 stress="-0.012527183170341266 6.361346101100216e-05 -1.2483018251766518e-07 6.361346101100216e-05 -0.012450512472238917 -1.0048829692672046e-06 -1.2483018251766518e-07 -1.0048829692672046e-06 0.0027905038320728943" free_energy=-150.48470167 energy=-150.48340488 pbc="T T T"
C        0.00000000       0.00000000      13.91551000      -0.00098700      -0.24980900       0.04726700
C        3.69000000       2.13042000      13.91550000      -0.21788700       0.12590100       0.04731700
C        2.46000000       0.00000000      13.91345000      -0.00096200       0.00060900       0.02290700
C        1.23000000       2.13042000      13.91550000       0.21590600       0.12589500       0.04730400
C       -0.00005000       1.42031000      13.95041000       0.00098600      -0.00054000      -0.00448000
C       -1.23005000       3.55073000      13.90923000       0.08103000       0.04542100       0.04557300
C        2.45995000       1.42031000      13.90924000       0.00107500      -0.09290800       0.04553300
C        1.22995000       3.55073000      13.90921000      -0.07894600       0.04545800       0.04556000
C        0.00000000       0.00000000      10.09790000      -0.00001700      -0.31845700      -0.03594400
C        3.69000000       2.13042000      10.09789000      -0.27530400       0.15860800      -0.03560700
C        2.46000000       0.00000000      10.11181000       0.00040100      -0.00125800      -0.05616100
C        1.23000000       2.13042000      10.09776000       0.27575800       0.15787900      -0.03467100
C        1.23005000       0.71011000      10.09781000       0.27520200      -0.15948400      -0.03121100
C        0.00005000       2.84053000      10.09781000      -0.00201100       0.32048400      -0.03102900
C        3.69000000       0.71011000      10.09792000      -0.27578400      -0.15891600      -0.03183900
C        2.46000000       2.84053000      10.11068000       0.00143100       0.00096800      -0.03982000
Li       0.00007000       1.42003000      11.85236000       0.00010900       0.00014700      -0.00069900
17
Lattice="4.920000076 0.0 0.0 -2.460000038 4.260845053 0.0 0.0 0.0 24.0" Properties=species:S:1:pos:R:3:forces:R:3 stress="-0.012152080954893934 6.383815533953397e-05 5.180452574483105e-07 6.383815533953397e-05 -0.012074842279461128 -1.472996153708449e-06 5.180452574483105e-07 -1.472996153708449e-06 0.0020527824194299968" free_energy=-150.47102109 energy=-150.46983042 pbc="T T T"
C        0.00000000       0.00000000      13.89052000      -0.00104000      -0.24965700       0.03428600
C        3.69000000       2.13042000      13.89053000      -0.21780000       0.12584300       0.03427700
C        2.46000000       0.00000000      13.88405000      -0.00099400       0.00061300       0.02176500
C        1.23000000       2.13042000      13.89052000       0.21572900       0.12584900       0.03430300
C       -0.00005000       1.42031000      13.93203000       0.00098300      -0.00048000       0.01197400
C       -1.23005000       3.55073000      13.88177000       0.08346800       0.04674500       0.03656600
C        2.45995000       1.42031000      13.88177000       0.00113900      -0.09563700       0.03653800
C        1.22995000       3.55073000      13.88174000      -0.08131300       0.04681700       0.03659900
C        0.00000000       0.00000000      10.12297000      -0.00002100      -0.32919600      -0.02834500
C        3.69000000       2.13042000      10.12300000      -0.28447800       0.16393000      -0.02844700
C        2.46000000       0.00000000      10.13598000       0.00047100      -0.00132900      -0.02190300
C        1.23000000       2.13042000      10.12303000       0.28501300       0.16325400      -0.02891300
C        1.23005000       0.71011000      10.12276000       0.28458800      -0.16490200      -0.03016200