17
Lattice="4.920000076 0.0 0.0 -2.460000038 4.260845053 0.0 0.0 0.0 24.0" Properties=species:S:1:pos:R:3:forces:R:3 stress="-0.011722559021378027 5.6379551934103466e-05 -2.9928036258610225e-05 5.6379551934103466e-05 -0.011647317628865504 2.8798323106825354e-05 -2.9928036258610225e-05 2.8798323106825354e-05 -0.028614317176285188" free_energy=-148.68250758 energy=-148.6817163 pbc="T T T"
C        0.00000000       0.00000000      13.55000000      -0.00164500      -0.39684100       0.38342000
C        3.69000000       2.13042000      13.55000000      -0.34590300       0.19932700       0.38360100
C        2.46000000       0.00000000      13.55000000      -0.00178400       0.00065500       0.17276300
C        1.23000000       2.13042000      13.55000000       0.34252200       0.19927200       0.38342000
C       -0.00005000       1.42031000      13.55000000       0.00440100      -0.00303500       6.38326100
C       -1.23005000       3.55073000      13.55000000       0.14093900       0.07606800       0.16174500
C        2.45995000       1.42031000      13.55000000       0.00417100      -0.16082300       0.16174400
C        1.22995000       3.55073000      13.55000000      -0.13250800       0.07601800       0.16175500
C        0.00000000       0.00000000      10.45000000      -0.00049800      -0.46975200      -0.44301600
C        3.69000000       2.13042000      10.45000000      -0.40675100       0.23400100      -0.44308600
C        2.46000000       0.00000000      10.45000000      -0.00000400      -0.00136400      -0.01809900
C        1.23000000       2.13042000      10.45000000       0.40625100       0.23328500      -0.44303200
C        1.23005000       0.71011000      10.45000000       0.40258800      -0.23350000      -0.42561600
C        0.00005000       2.84053000      10.45000000      -0.00543300       0.47373800      -0.42612900
C        3.69000000       0.71011000      10.45000000      -0.40721600      -0.23123100      -0.42597100
C        2.46000000       2.84053000      10.45000000       0.00106500       0.00455700      -0.02291300
Li      -0.00005000       1.42031000      12.00000000      -0.00019500      -0.00037500      -5.54384700
17
Lattice="4.920000076 0.0 0.0 -2.460000038 4.260845053 0.0 0.0 0.0 24.0" Properties=species:S:1:pos:R:3:forces:R:3 stress="-0.013582522499382112 6.269595916949732e-05 -2.303116867450922e-06 6.269595916949732e-05 -0.013507256140833085 1.3856150259460834e-06 -2.303116867450922e-06 1.3856150259460834e-06 -0.010873957199113812" free_energy=-149.03361504 energy=-149.03307687 pbc="T T T"
C        0.00000000       0.00000000      13.56850000      -0.00169700       0.14381700       1.43525700
C        3.69000000       2.13042000      13.56851000       0.12234100      -0.07059400       1.43495700
C        2.46000000       0.00000000      13.55833000      -0.00155400       0.00093300       0.48528500
C        1.23000000       2.13042000      13.56850000      -0.12538200      -0.07039300       1.43524200
C       -0.00005000       1.42031000      13.85795000       0.00158200      -0.00093100      -3.48538700
C       -1.23005000       3.55073000      13.55780000       0.07091800       0.03905700       0.04876700
C        2.45995000       1.42031000      13.55780000       0.00160500      -0.08096400       0.04876700
C        1.22995000       3.55073000      13.55780000      -0.06763200       0.03901600       0.04783500
C        0.00000000       0.00000000      10.42863000      -0.00012300      -0.85491500      -0.65754300
C        3.69000000       2.13042000      10.42862000      -0.74029100       0.42704500      -0.65778000
C        2.46000000       0.00000000      10.44913000       0.00026200      -0.00107500      -0.22670800
C        1.23000000       2.13042000      10.42863000       0.74030200       0.42620200      -0.65747000
C        1.23005000       0.71011000      10.42947000       0.73745300      -0.42640400      -0.66746000
C        0.00005000       2.84053000      10.42944000      -0.00177300       0.85441100      -0.66753200
C        3.69000000       0.71011000      10.42945000      -0.73796600      -0.42604100      -0.66761900
C        2.46000000       2.84053000      10.44889000       0.00156800       0.00101600      -0.23441300
Li      -0.00006000       1.42029000      11.73255000       0.00038800      -0.00017900       2.98580100
17
Lattice="4.920000076 0.0 0.0 -2.460000038 4.260845053 0.0 0.0 0.0 24.0" Properties=species:S:1:pos:R:3:forces:R:3 stress="-0.01359184731401618 6.43125100331011e-05 -1.1796452247919358e-06 6.43125100331011e-05 -0.013514490049909983 7.73947131609524e-07 -1.1796452247919358e-06 7.73947131609524e-07 -0.012751116034759705" free_energy=-149.60997616 energy=-149.60937979 pbc="T T T"
C        0.00000000       0.00000000      13.61166000      -0.00151400      -0.22317400       0.28306100
C        3.69000000       2.13042000      13.61166000      -0.19548000       0.11290700       0.28320500
C        2.46000000       0.00000000      13.57293000      -0.00149300       0.00091100       0.04488200
C        1.23000000       2.13042000      13.61166000       0.19252900       0.11294900       0.28304800
C       -0.00005000       1.42031000      13.75313000       0.00150500      -0.00089300      -0.56532500
C       -1.23005000       3.55073000      13.55927000       0.09741400       0.05444800       0.63673500
C        2.45995000       1.42031000      13.55927000       0.00151900      -0.11160900       0.63673300
C        1.22995000       3.55073000      13.55924000      -0.09425800       0.05438100       0.63631400
C        0.00000000       0.00000000      10.40885000      -0.00011600      -0.65270500      -0.43783200
C        3.69000000       2.13042000      10.40884000      -0.56505000       0.32585500      -0.43798300
C        2.46000000       0.00000000      10.44231000       0.00031900      -0.00112200      -0.38760000
C        1.23000000       2.13042000      10.40885000       0.56522500       0.32509200      -0.43782500
C        1.23005000       0.71011000      10.40939000       0.56312500      -0.32574700      -0.42553500
C        0.00005000       2.84053000      10.40937000      -0.00182900       0.65309000      -0.42540500
C        3.69000000       0.71011000      10.40937000      -0.56361700      -0.32531900      -0.42548200
C        2.46000000       2.84053000      10.44184000       0.00151900       0.00105200      -0.36265100
Li      -0.00005000       1.42029000      11.82234000       0.00020200      -0.00011700       1.10166100
17
Lattice="4.920000076 0.0 0.0 -2.460000038 4.260845053 0.0 0.0 0.0 24.0" Properties=species:S:1:pos:R:3:forces:R:3 stress="-0.013568903526469432 6.466827605327644e-05 -1.2233357886731185e-06 6.466827605327644e-05 -0.013491121839742678 8.051546772389402e-07 -1.2233357886731185e-06 8.051546772389402e-07 -0.012502891216823329" free_energy=-149.73092252 energy=-149.73029493 pbc="T T T"
C        0.00000000       0.00000000      13.61776000      -0.00147400      -0.24129900       0.43720200
C        3.69000000       2.13042000      13.61777000      -0.21115300       0.12196300       0.43737200
C        2.46000000       0.00000000      13.57289000      -0.00147800       0.00091400       0.38752900
C        1.23000000       2.13042000      13.61776000       0.20824900       0.12198700       0.43719200
C       -0.00005000       1.42031000      13.74335000       0.00147500      -0.00088300      -0.10284600
C       -1.23005000       3.55073000      13.58539000       0.10358300       0.05800900       0.27595200
C        2.45995000       1.42031000      13.58539000       0.00151200      -0.11873900       0.27595000
C        1.22995000       3.55073000      13.58535000      -0.10046300       0.05795600       0.27576200
C        0.00000000       0.00000000      10.39332000      -0.00011200      -0.58114100      -0.33200500
C        3.69000000       2.13042000      10.39331000      -0.50305100       0.29006500      -0.33204700
C        2.46000000       0.00000000      10.42718000       0.00032800      -0.00111900      -0.32533300
C        1.23000000       2.13042000      10.39332000       0.50327000       0.28932000      -0.33200300
C        1.23005000       0.71011000      10.39441000       0.50109300      -0.28994100      -0.36623300
C        0.00005000       2.84053000      10.39439000      -0.00185300       0.58144300      -0.36612100
C        3.69000000       0.71011000      10.39439000      -0.50158400      -0.28948800      -0.36616900
C        2.46000000       2.84053000      10.42777000       0.00151100       0.00105100      -0.32789300
Li      -0.00004000       1.42028000      11.85623000       0.00014700      -0.00009700       0.32369000
17
Lattice="4.920000076 0.0 0.0 -2.460000038 4.260845053 0.0 0.0 0.0 24.0" Properties=species:S:1:pos:R:3:forces:R:3 stress="-0.012418886745498065 6.484303830880117e-05 -7.552226042318742e-07 6.484303830880117e-05 -0.012340880364442777 4.930792209447775e-07 -7.552226042318742e-07 4.930792209447775e-07 -0.010216289382519495" free_energy=-149.93043236 energy=-149.92968074 pbc="T T T"
C        0.00000000       0.00000000      13.66931000      -0.00133800      -0.29787500       0.08946300
C        3.69000000       2.13042000      13.66935000      -0.25996300       0.15015300       0.08950700
C        2.46000000       0.00000000      13.61814000      -0.00134600       0.00084800       0.39928400
C        1.23000000       2.13042000      13.66931000       0.25731900       0.15017100       0.08946500
C       -0.00005000       1.42031000      13.73844000       0.00134200      -0.00080800       1.07253400
C       -1.23005000       3.55073000      13.63631000       0.10327600       0.05797000       0.23495200
C        2.45995000       1.42031000      13.63631000       0.00139000      -0.11846400       0.23494700
C        1.22995000       3.55073000      13.63624000      -0.10044100       0.05793900       0.23515800
C        0.00000000       0.00000000      10.34513000      -0.00007900      -0.46625800      -0.19051700
C        3.69000000       2.13042000      10.34511000      -0.40349100       0.23257500      -0.19036100
C        2.46000000       0.00000000      10.37831000       0.00035800      -0.00113500      -0.39844500
C        1.23000000       2.13042000      10.34513000       0.40380900       0.23184600      -0.19050500
C        1.23005000       0.71011000      10.34245000       0.40164300      -0.23252300      -0.12795400
C        0.00005000       2.84053000      10.34245000      -0.00190400       0.46659300      -0.12794300
C        3.69000000       0.71011000      10.34245000      -0.40215300      -0.23202300      -0.12791700
C        2.46000000       2.84053000      10.37934000       0.00149200       0.00106700      -0.35014900
Li      -0.00002000       1.42027000      11.90622000       0.00008600      -0.00007500      -0.74151900
17
Lattice="4.920000076 0.0 0.0 -2.460000038 4.260845053 0.0 0.0 0.0 24.0" Properties=species:S:1:pos:R:3:forces:R:3 stress="-0.011832858970650634 6.439364965173758e-05 -4.743546935671276e-07 6.439364965173758e-05 -0.01175536439334367 3.3704149279769594e-07 -4.743546935671276e-07 3.3704149279769594e-07 -0.003341660295434015" free_energy=-150.23357469 energy=-150.23271306 pbc="T T T"
C        0.00000000       0.00000000      13.74751000      -0.00127200      -0.21286900       0.28403600
C        3.69000000       2.13042000      13.74757000      -0.18625400       0.10760000       0.28362500
C        2.46000000       0.00000000      13.72703000      -0.00121000       0.00076300       0.10849100
C        1.23000000       2.13042000      13.74751000       0.18374500       0.10761900       0.28404900
C       -0.00005000       1.42031000      13.85704000       0.00127100      -0.00077300      -0.47117100
C       -1.23005000       3.55073000      13.72055000       0.09866200       0.05537600       0.28163900
C        2.45995000       1.42031000      13.72055000       0.00132400      -0.11317400       0.28164400
C        1.22995000       3.55073000      13.72048000      -0.09605100       0.05539900       0.28164700
C        0.00000000       0.00000000      10.26301000      -0.00004700      -0.41511400      -0.16105800
C        3.69000000       2.13042000      10.26300000      -0.35912300       0.20695200      -0.16081700
C        2.46000000       0.00000000      10.26793000       0.00038500      -0.00115600       0.09677600
C        1.23000000       2.13042000      10.26302000       0.35952300       0.20623100      -0.16106000
C        1.23005000       0.71011000      10.26766000       0.36305900      -0.21023700      -0.31516800
C        0.00005000       2.84053000      10.26767000      -0.00194700       0.42203900      -0.31532700
C        3.69000000       0.71011000      10.26766000      -0.36358100      -0.20969800      -0.31526300
C        2.46000000       2.84053000      10.27735000       0.00148900       0.00107800      -0.10285800
Li       0.00002000       1.42024000      11.87445000       0.00002900      -0.00003400       0.10081500
17
Lattice="4.920000076 0.0 0.0 -2.460000038 4.260845053 0.0 0.0 0.0 24.0" Properties=species:S:1:pos:R:3:forces:R:3 stress="-0.012847803252628765 6.415647230495402e-05 -8.113961863648234e-08 6.415647230495402e-05 -0.012770564577195956 8.738112776236562e-08 -8.113961863648234e-08 8.738112776236562e-08 1.3899840823342017e-05" free_energy=-150.42853872 energy=-150.42747956 pbc="T T T"
C        0.00000000       0.00000000      13.84327000      -0.00113100      -0.22275600       0.14757000
C        3.69000000       2.13042000      13.84334000      -0.19465200       0.11246200       0.14706100
C        2.46000000       0.00000000      13.83489000      -0.00106700       0.00069100      -0.02129600
C        1.23000000       2.13042000      13.84326000       0.19239700       0.11246500       0.14759500
C       -0.00005000       1.42031000      13.92535000       0.00113600      -0.00070900      -0.36629300
C       -1.23005000       3.55073000      13.82643000       0.09359300       0.05257300       0.17326600
C        2.45995000       1.42031000      13.82643000       0.00120500      -0.10740200       0.17327600
C        1.22995000       3.55073000      13.82634000      -0.09127600       0.05262700       0.17350400
C        0.00000000       0.00000000      10.16875000       0.00000000      -0.34052600      -0.09404200
C        3.69000000       2.13042000      10.16876000      -0.29445800       0.16961400      -0.09390100
C        2.46000000       0.00000000      10.16376000       0.00044800      -0.00119300       0.20019500
C        1.23000000       2.13042000      10.16876000       0.29496000       0.16889400      -0.09405700
C        1.23005000       0.71011000      10.16982000       0.29683400      -0.17200100      -0.15950000
C        0.00005000       2.84053000      10.16984000      -0.00201400       0.34561900      -0.15972300
C        3.69000000       0.71011000      10.16983000      -0.29743700      -0.17143500      -0.15963000
C        2.46000000       2.84053000      10.17039000       0.00145200       0.00109600       0.03821900
Li       0.00006000       1.42021000      11.88079000       0.00001100      -0.00001900      -0.05224400
17
Lattice="4.920000076 0.0 0.0 -2.460000038 4.260845053 0.0 0.0 0.0 24.0" Properties=species:S:1:pos:R:3:forces:R:3 stress="-0.012325058138808662 6.358225346537276e-05 1.0610565514001541e-07 6.358225346537276e-05 -0.01224869327465348 -2.4966036503533037e-08 1.0610565514001541e-07 -2.4966036503533037e-08 0.0031251298608388736" free_energy=-150.4869685 energy=-150.48558847 pbc="T T T"
C        0.00000000       0.00000000      13.92324000      -0.00097600      -0.24397000       0.10211700
C        3.69000000       2.13042000      13.92329000      -0.21282700       0.12296300       0.10181900
C        2.46000000       0.00000000      13.91687000      -0.00094000       0.00062400       0.09582900
C        1.23000000       2.13042000      13.92323000       0.21085800       0.12295300       0.10213800
C       -0.00005000       1.42031000      13.96762000       0.00097400      -0.00061900      -0.09221500
C       -1.23005000       3.55073000      13.91702000       0.08476800       0.04762400       0.02111100
C        2.45995000       1.42031000      13.91702000       0.00107400      -0.09730000       0.02112400
C        1.22995000       3.55073000      13.91693000      -0.08272300       0.04768400       0.02156100
C        0.00000000       0.00000000      10.08984000      -0.00003500      -0.30006900      -0.08223900
C        3.69000000       2.13042000      10.08987000      -0.25950700       0.14946300      -0.08234500
C        2.46000000       0.00000000      10.09239000       0.00042500      -0.00115100       0.02978600
C        1.23000000       2.13042000      10.08985000       0.25994300       0.14874400      -0.08227800
C        1.23005000       0.71011000      10.08832000       0.25920300      -0.15030800      -0.03730300
C        0.00005000       2.84053000      10.08835000      -0.00200200       0.30206500      -0.03740300
C        3.69000000       0.71011000      10.08834000      -0.25974100      -0.14972400      -0.03735300
C        2.46000000       2.84053000      10.09041000       0.00149100       0.00103900       0.09315200
Li       0.00009000       1.42019000      11.87741000       0.00001500      -0.00001700      -0.13750100
17
Lattice="4.920000076 0.0 0.0 -2.460000038 4.260845053 0.0 0.0 0.0 24.0" Properties=species:S:1:pos:R:3:forces:R:3 stress="-0.012178245361149639 6.335755913684095e-05 1.5603772814708145e-07 6.335755913684095e-05 -0.012102198813959873 -8.738112776236562e-08 1.5603772814708145e-07 -8.738112776236562e-08 0.003830863539211619" free_energy=-150.49959606 energy=-150.49812098 pbc="T T T"
C        0.00000000       0.00000000      13.94143000      -0.00094100      -0.25103000       0.00843100
C        3.69000000       2.13042000      13.94147000      -0.21888900       0.12646100       0.00821800
C        2.46000000       0.00000000      13.93644000      -0.00090200       0.00059900       0.04628300
C        1.23000000       2.13042000      13.94143000       0.21699000       0.12645100       0.00844500
C       -0.00005000       1.42031000      13.97263000       0.00094200      -0.00059700      -0.01144500
C       -1.23005000       3.55073000      13.93224000       0.08087900       0.04542500       0.10035600
C        2.45995000       1.42031000      13.93224000       0.00103300      -0.09283300       0.10036600
C        1.22995000       3.55073000      13.93218000      -0.07891500       0.04548500       0.10064900
C        0.00000000       0.00000000      10.07251000      -0.00005400      -0.29637300      -0.01979800
C        3.69000000       2.13042000      10.07254000      -0.25634000       0.14764300      -0.01990100
C        2.46000000       0.00000000      10.08025000       0.00040700      -0.00113400       0.00931000
C        1.23000000       2.13042000      10.07252000       0.25674100       0.14692600      -0.01983200
C        1.23005000       0.71011000      10.07363000       0.25646000      -0.14873000      -0.05474100
C        0.00005000       2.84053000      10.07365000      -0.00198300       0.29884700      -0.05477500
C        3.69000000       0.71011000      10.07364000      -0.25695100      -0.14814100      -0.05475200
C        2.46000000       2.84053000      10.08171000       0.00151000       0.00101700      -0.02547400
Li       0.00010000       1.42018000      11.86950000       0.00001300      -0.00001400      -0.12134000
17
Lattice="4.920000076 0.0 0.0 -2.460000038 4.260845053 0.0 0.0 0.0 24.0" Properties=species:S:1:pos:R:3:forces:R:3 stress="-0.012427375197909266 6.315158933568681e-05 1.497962190211982e-07 6.315158933568681e-05 -0.01235165320919405 -8.738112776236562e-08 1.497962190211982e-07 -8.738112776236562e-08 0.003947117888190321" free_energy=-150.51062725 energy=-150.50905397 pbc="T T T"
C        0.00000000       0.00000000      13.95661000      -0.00090800      -0.25176500       0.03207700
C        3.69000000       2.13042000      13.95664000      -0.21948100       0.12680200       0.03190300
C        2.46000000       0.00000000      13.95499000      -0.00087200       0.00057900       0.05107400
C        1.23000000       2.13042000      13.95661000       0.21764400       0.12678900       0.03208700
C       -0.00005000       1.42031000      13.98277000       0.00092200      -0.00058200       0.02365000
C       -1.23005000       3.55073000      13.95209000       0.07916400       0.04447900       0.04067100
C        2.45995000       1.42031000      13.95209000       0.00099600      -0.09087600       0.04067900
C        1.22995000       3.55073000      13.95204000      -0.07727400       0.04453800       0.04089700
C        0.00000000       0.00000000      10.05678000      -0.00007500      -0.29213100      -0.01913400
C        3.69000000       2.13042000      10.05680000      -0.25270800       0.14555500      -0.01921700
C        2.46000000       0.00000000      10.06543000       0.00038700      -0.00111400      -0.02094500
C        1.23000000       2.13042000      10.05678000       0.25306700       0.14483700      -0.01915800
C        1.23005000       0.71011000      10.05704000       0.25253900      -0.14647400      -0.02965100
C        0.00005000       2.84053000      10.05706000      -0.00196100       0.29426000      -0.02967900
C        3.69000000       0.71011000      10.05705000      -0.25298400      -0.14587900      -0.02966300
C        2.46000000       2.84053000      10.06594000       0.00153500       0.00099000      -0.02974600
Li       0.00010000       1.42018000      11.86328000       0.00000900      -0.00001000      -0.09584500
17
Lattice="4.920000076 0.0 0.0 -2.460000038 4.260845053 0.0 0.0 0.0 24.0" Properties=species:S:1:pos:R:3:forces:R:3 stress="-0.012936039467141376 6.357601195624687e-05 1.4979621902119818e-06 6.357601195624687e-05 -0.012861091425557771 -2.3842564860874046e-06 1.4979621902119818e-06 -2.3842564860874046e-06 0.003921402870591681" free_energy=-150.51664425 energy=-150.51501207 pbc="T T T"
C        0.00000000       0.00000000      13.96954000      -0.00084100      -0.25214900       0.01966600
C        3.69000000       2.13042000      13.96955000      -0.21966900       0.12685500       0.01956600
C        2.46000000       0.00000000      13.97073000      -0.00080600       0.00048600      -0.02955100
C        1.23000000       2.13042000      13.96953000       0.21796400       0.12684200       0.01967100
C       -0.00005000       1.42031000      13.99204000       0.00093000      -0.00063600       0.02962400
C       -1.23005000       3.55073000      13.96649000       0.07737600       0.04336700       0.04430500
C        2.45995000       1.42031000      13.96649000       0.00102200      -0.08884700       0.04430800
C        1.22995000       3.55073000      13.96646000      -0.07543000       0.04342300       0.04440100
C        0.00000000       0.00000000      10.04476000      -0.00004100      -0.29069500      -0.01551500
C        3.69000000       2.13042000      10.04478000      -0.25136700       0.14473100      -0.01554600
C        2.46000000       0.00000000      10.05312000       0.00042300      -0.00118600      -0.02140600
C        1.23000000       2.13042000      10.04476000       0.25179700       0.14401400      -0.01552200
C        1.23005000       0.71011000      10.04455000       0.25105800      -0.14567400      -0.01335000
C        0.00005000       2.84053000      10.04457000      -0.00190900       0.29239400      -0.01337900
C        3.69000000       0.71011000      10.04457000      -0.25138500      -0.14507400      -0.01337000
C        2.46000000       2.84053000      10.05324000       0.00159900       0.00089700      -0.01786600
Li       0.00011000       1.42018000      11.85481000      -0.00072200       0.00125200      -0.06603400
17
Lattice="4.920000076 0.0 0.0 -2.460000038 4.260845053 0.0 0.0 0.0 24.0" Properties=species:S:1:pos:R:3:forces:R:3 stress="-0.0135778413675377 6.291441198890324e-05 4.9932073007066075e-08 6.291441198890324e-05 -0.013502468903333533 1.2483018251766518e-07 4.9932073007066075e-08 1.2483018251766518e-07 0.004076498130860755" free_energy=-150.51118548 energy=-150.50950618 pbc="T T T"
C        0.00000000       0.00000000      13.97855000      -0.00087200      -0.25236100       0.00424700
C        3.69000000       2.13042000      13.97856000      -0.21994400       0.12706200       0.00421200
C        2.46000000       0.00000000      13.97845000      -0.00084400       0.00056500       0.04037700
C        1.23000000       2.13042000      13.97855000       0.21817600       0.12704700       0.00424800
C       -0.00005000       1.42031000      13.99936000       0.00089500      -0.00058100       0.01898000
C       -1.23005000       3.55073000      13.97713000       0.07586000       0.04263200      -0.01901300
C        2.45995000       1.42031000      13.97713000       0.00095800      -0.08709800      -0.01901500
C        1.22995000       3.55073000      13.97711000      -0.07401300       0.04267200      -0.01897700
C        0.00000000       0.00000000      10.03625000      -0.00009000      -0.28949700       0.00022200
C        3.69000000       2.13042000      10.03626000      -0.25049500       0.14427300       0.00016800
C        2.46000000       0.00000000      10.04404000       0.00035200      -0.00107300       0.01276100
C        1.23000000       2.13042000      10.03625000       0.25080000       0.14354100       0.00019600
C        1.23005000       0.71011000      10.03630000       0.24998900      -0.14501800      -0.00568400
C        0.00005000       2.84053000      10.03632000      -0.00193900       0.29129800      -0.00574700
C        3.69000000       0.71011000      10.03631000      -0.25039500      -0.14442900      -0.00572100
C        2.46000000       2.84053000      10.04448000       0.00155300       0.00099100       0.00736800
Li       0.00008000       1.42024000      11.84895000       0.00000900      -0.00002200      -0.01862000
17
Lattice="4.920000076 0.0 0.0 -2.460000038 4.260845053 0.0 0.0 0.0 24.0" Properties=species:S:1:pos:R:3:forces:R:3 stress="-0.013685182841484638 6.285823840677029e-05 1.2483018251766519e-08 6.285823840677029e-05 -0.013597452189211224 -7.957924135501154e-06 1.2483018251766519e-08 -7.957924135501154e-06 0.004121624241840891" free_energy=-150.51144446 energy=-150.50974766 pbc="T T T"
C        0.00000000       0.00000000      13.98220000      -0.00086600      -0.25288500       0.00354500
C        3.69000000       2.13042000      13.98220000      -0.21952500       0.12581500       0.00353400
C        2.46000000       0.00000000      13.98312000      -0.00084100      -0.00043600       0.02880700
C        1.23000000       2.13042000      13.98220000       0.21776700       0.12580000       0.00354200
C       -0.00005000       1.42031000      14.00287000       0.00089000      -0.00158600       0.00869600
C       -1.23005000       3.55073000      13.98069000       0.07548000       0.04142100      -0.00944900
C        2.45995000       1.42031000      13.98069000       0.00095600      -0.08766800      -0.00945100
C        1.22995000       3.55073000      13.98068000      -0.07362800       0.04145500      -0.00944700
C        0.00000000       0.00000000      10.03292000      -0.00009300      -0.29045700      -0.00964900
C        3.69000000       2.13042000      10.03293000      -0.25047700       0.14325900      -0.00970100
C        2.46000000       0.00000000      10.04106000       0.00034300      -0.00206300       0.00861400
C        1.23000000       2.13042000      10.03292000       0.25076900       0.14252200      -0.00967200
C        1.23005000       0.71011000      10.03276000       0.24990300      -0.14597300       0.00263900
C        0.00005000       2.84053000      10.03278000      -0.00193400       0.29020200       0.00257900
C        3.69000000       0.71011000      10.03278000      -0.25030500      -0.14538800       0.00260400
C        2.46000000       2.84053000      10.04134000       0.00155200       0.01700800       0.00345100
Li       0.00006000       1.42026000      11.84587000       0.00000900      -0.00102500      -0.01064100
17
Lattice="4.920000076 0.0 0.0 -2.460000038 4.260845053 0.0 0.0 0.0 24.0" Properties=species:S:1:pos:R:3:forces:R:3 stress="-0.013715360538108285 6.283327237026675e-05 -6.241509125883259e-09 6.283327237026675e-05 -0.013640087938050131 9.986414601413215e-08 -6.241509125883259e-09 9.986414601413215e-08 0.004108111374583354" free_energy=-150.51149712 energy=-150.50978828 pbc="T T T"
C        0.00000000       0.00000000      13.98432000      -0.00086200      -0.25179200       0.00257800
C        3.69000000       2.13042000      13.98432000      -0.21943800       0.12677100       0.00258100
C        2.46000000       0.00000000      13.98587000      -0.00083800       0.00055700       0.02241100
C        1.23000000       2.13042000      13.98432000       0.21768800       0.12675600       0.00257700
C       -0.00005000       1.42031000      14.00470000       0.00088800      -0.00056800       0.00535100
C       -1.23005000       3.55073000      13.98285000       0.07524300       0.04228000      -0.00575800
C        2.45995000       1.42031000      13.98285000       0.00095100      -0.08638200      -0.00575900
C        1.22995000       3.55073000      13.98284000      -0.07339400       0.04231000      -0.00577100
C        0.00000000       0.00000000      10.03064000      -0.00009400      -0.28936200       0.00384800
C        3.69000000       2.13042000      10.03065000      -0.25039100       0.14421900       0.00382000
C        2.46000000       0.00000000      10.03933000       0.00033800      -0.00107100       0.00319700
C        1.23000000       2.13042000      10.03064000       0.25067600       0.14348000       0.00384700
C        1.23005000       0.71011000      10.03097000       0.24977600      -0.14489400      -0.00698100