17
Lattice="4.920000076 0.0 0.0 -2.460000038 4.260845053 0.0 0.0 0.0 24.0" Properties=species:S:1:pos:R:3:forces:R:3 stress="-0.01327731270312642 6.22216044759302e-05 -1.5603772814708145e-07 6.22216044759302e-05 -0.013203300887911695 2.1845281940591405e-07 -1.5603772814708145e-07 2.1845281940591405e-07 0.003983805478832263" free_energy=-150.42615327 energy=-150.42403305 pbc="T T T"
C        0.00000000       0.00000000      14.00000000      -0.00074600      -0.26879800      -0.07562100
C        3.69000000       2.13042000      14.00000000      -0.23400000       0.13518700      -0.07561400
C        2.46000000       0.00000000      14.00000000      -0.00073500       0.00051300       0.03971100
C        1.23000000       2.13042000      14.00000000       0.23248400       0.13517300      -0.07562400
C       -0.00005000       1.42031000      14.00000000       0.00082300      -0.00054500       0.76373700
C       -1.23005000       3.55073000      14.00000000       0.08736800       0.04944100      -0.03136300
C        2.45995000       1.42031000      14.00000000       0.00080800      -0.10048900      -0.03136300
C        1.22995000       3.55073000      14.00000000      -0.08572800       0.04942600      -0.03135500
C        0.00000000       0.00000000      10.00000000      -0.00016100      -0.22186100       0.04635500
C        3.69000000       2.13042000      10.00000000      -0.19219900       0.11069400       0.04632900
C        2.46000000       0.00000000      10.00000000       0.00020300      -0.00090700       0.08714700
C        1.23000000       2.13042000      10.00000000       0.19226200       0.10990200       0.04631400
C        1.23005000       0.71011000      10.00000000       0.19271800      -0.11203600       0.03553200
C        0.00005000       2.84053000      10.00000000      -0.00182400       0.22492200       0.03555500
C        3.69000000       0.71011000      10.00000000      -0.19292200      -0.11147300       0.03552800
C        2.46000000       2.84053000      10.00000000       0.00162900       0.00086700       0.08362900
Li      -0.00005000       1.42031000      12.00000000       0.00001900      -0.00001700      -0.89889800
17
Lattice="4.920000076 0.0 0.0 -2.460000038 4.260845053 0.0 0.0 0.0 24.0" Properties=species:S:1:pos:R:3:forces:R:3 stress="-0.013310386459984475 6.219039693030079e-05 -2.871094197906299e-07 6.219039693030079e-05 -0.013236330954205868 3.058339471682796e-07 -2.871094197906299e-07 3.058339471682796e-07 0.004995741353411716" free_energy=-150.47129715 energy=-150.46923025 pbc="T T T"
C        0.00000000       0.00000000      13.99635000      -0.00075300      -0.24408700       0.10912800
C        3.69000000       2.13042000      13.99635000      -0.21260600       0.12283500       0.10906800
C        2.46000000       0.00000000      14.00192000      -0.00074200       0.00051400       0.04710300
C        1.23000000       2.13042000      13.99635000       0.21108000       0.12282300       0.10912800
C       -0.00005000       1.42031000      14.03684000       0.00082400      -0.00055300      -0.06122700
C       -1.23005000       3.55073000      13.99849000       0.09101300       0.05154200      -0.06649600
C        2.45995000       1.42031000      13.99849000       0.00081000      -0.10468300      -0.06649700
C        1.22995000       3.55073000      13.99849000      -0.08936300       0.05152500      -0.06667200
C        0.00000000       0.00000000      10.00224000      -0.00014500      -0.23539200       0.04104200
C        3.69000000       2.13042000      10.00224000      -0.20388000       0.11742700       0.04102500
C        2.46000000       0.00000000      10.00420000       0.00022000      -0.00092700       0.06736400
C        1.23000000       2.13042000      10.00223000       0.20397900       0.11663700       0.04102700
C        1.23005000       0.71011000      10.00171000       0.20432600      -0.11872600       0.04416900
C        0.00005000       2.84053000      10.00172000      -0.00183600       0.23836500       0.04417200
C        3.69000000       0.71011000      10.00171000      -0.20456200      -0.11816600       0.04416800
C        2.46000000       2.84053000      10.00403000       0.00161200       0.00088500       0.07592700
Li      -0.00005000       1.42031000      11.95663000       0.00002100      -0.00002100      -0.51242900
17
Lattice="4.920000076 0.0 0.0 -2.460000038 4.260845053 0.0 0.0 0.0 24.0" Properties=species:S:1:pos:R:3:forces:R:3 stress="-0.01340625604015804 6.217791391204902e-05 -2.371773467835638e-07 6.217791391204902e-05 -0.01333215060230643 2.683848924129801e-07 -2.371773467835638e-07 2.683848924129801e-07 0.0050682489649271" free_energy=-150.48541718 energy=-150.48336218 pbc="T T T"
C        0.00000000       0.00000000      14.00207000      -0.00074800      -0.24909400      -0.01738000
C        3.69000000       2.13042000      14.00207000      -0.21693700       0.12533300      -0.01736900
C        2.46000000       0.00000000      14.00438000      -0.00074000       0.00051200      -0.05311700
C        1.23000000       2.13042000      14.00207000       0.21541500       0.12531900      -0.01738200
C       -0.00005000       1.42031000      14.03364000       0.00082600      -0.00055100      -0.01825600
C       -1.23005000       3.55073000      13.99500000       0.08619800       0.04877500       0.05583500
C        2.45995000       1.42031000      13.99500000       0.00080200      -0.09912600       0.05583600
C        1.22995000       3.55073000      13.99499000      -0.08456300       0.04875700       0.05576300
C        0.00000000       0.00000000      10.00439000      -0.00014000      -0.24492200       0.04475700
C        3.69000000       2.13042000      10.00439000      -0.21211500       0.12217300       0.04474200
C        2.46000000       0.00000000      10.00774000       0.00022700      -0.00094000       0.04205300
C        1.23000000       2.13042000      10.00438000       0.21222800       0.12138500       0.04474900
C        1.23005000       0.71011000      10.00403000       0.21235500      -0.12335100       0.04303800
C        0.00005000       2.84053000      10.00403000      -0.00183800       0.24765100       0.04303600
C        3.69000000       0.71011000      10.00403000      -0.21260000      -0.12279200       0.04303700
C        2.46000000       2.84053000      10.00801000       0.00160500       0.00089400       0.04302000
Li      -0.00005000       1.42031000      11.92977000       0.00002500      -0.00002400      -0.39236200
17
Lattice="4.920000076 0.0 0.0 -2.460000038 4.260845053 0.0 0.0 0.0 24.0" Properties=species:S:1:pos:R:3:forces:R:3 stress="-0.013646198375484375 6.22590535306855e-05 -2.8086791066474663e-07 6.22590535306855e-05 -0.013571905692358985 2.995924380423964e-07 -2.8086791066474663e-07 2.995924380423964e-07 0.00494383696352087" free_energy=-150.49632532 energy=-150.49432992 pbc="T T T"
C        0.00000000       0.00000000      14.00210000      -0.00076300      -0.24829800       0.01041100
C        3.69000000       2.13042000      14.00210000      -0.21627100       0.12494600       0.01045500
C        2.46000000       0.00000000      14.00164000      -0.00075700       0.00051900       0.01832400
C        1.23000000       2.13042000      14.00210000       0.21471600       0.12492900       0.01041200
C       -0.00005000       1.42031000      14.03192000       0.00083900      -0.00055500      -0.06981300
C       -1.23005000       3.55073000      13.99772000       0.08214100       0.04641300       0.01423400
C        2.45995000       1.42031000      13.99772000       0.00082100      -0.09443000       0.01423400
C        1.22995000       3.55073000      13.99771000      -0.08047100       0.04639700       0.01424400
C        0.00000000       0.00000000      10.00750000      -0.00012900      -0.25620200       0.02226200
C        3.69000000       2.13042000      10.00750000      -0.22185000       0.12778000       0.02225900
C        2.46000000       0.00000000      10.01095000       0.00024000      -0.00096200       0.05359400
C        1.23000000       2.13042000      10.00750000       0.22199000       0.12699500       0.02226300
C        1.23005000       0.71011000      10.00707000       0.22183700      -0.12881200       0.02214500
C        0.00005000       2.84053000      10.00707000      -0.00184800       0.25863800       0.02213100
C        3.69000000       0.71011000      10.00707000      -0.22211200      -0.12825500       0.02213700
C        2.46000000       2.84053000      10.01137000       0.00158800       0.00092200       0.05389500
Li      -0.00005000       1.42031000      11.90095000       0.00002900      -0.00002700      -0.26318700
17
Lattice="4.920000076 0.0 0.0 -2.460000038 4.260845053 0.0 0.0 0.0 24.0" Properties=species:S:1:pos:R:3:forces:R:3 stress="-0.013792436934303815 6.24837478592173e-05 -2.995924380423964e-07 6.24837478592173e-05 -0.013717707345539619 3.058339471682796e-07 -2.995924380423964e-07 3.058339471682796e-07 0.004786394895820466" free_energy=-150.50675193 energy=-150.50490069 pbc="T T T"
C        0.00000000       0.00000000      14.00397000      -0.00080500      -0.25219900      -0.02828400
C        3.69000000       2.13042000      14.00397000      -0.21971400       0.12692700      -0.02826800
C        2.46000000       0.00000000      14.00214000      -0.00080100       0.00053700       0.03299000
C        1.23000000       2.13042000      14.00397000       0.21806700       0.12690600      -0.02828300
C       -0.00005000       1.42031000      14.02187000       0.00090200      -0.00058100      -0.01135900
C       -1.23005000       3.55073000      14.00106000       0.07401500       0.04167000      -0.00501400
C        2.45995000       1.42031000      14.00106000       0.00087000      -0.08501600      -0.00501500
C        1.22995000       3.55073000      14.00104000      -0.07225700       0.04166000      -0.00492300
C        0.00000000       0.00000000      10.01267000      -0.00010300      -0.28069900       0.01328800
C        3.69000000       2.13042000      10.01267000      -0.24298600       0.13995300       0.01327700
C        2.46000000       0.00000000      10.02014000       0.00027300      -0.00101300       0.01948300
C        1.23000000       2.13042000      10.01267000       0.24318900       0.13917500       0.01329600
C        1.23005000       0.71011000      10.01219000       0.24232200      -0.14060900       0.01530500
C        0.00005000       2.84053000      10.01219000      -0.00188700       0.28240200       0.01530200
C        3.69000000       0.71011000      10.01219000      -0.24267300      -0.14005600       0.01530600
C        2.46000000       2.84053000      10.02075000       0.00155700       0.00097400       0.01888000
Li      -0.00004000       1.42030000      11.84545000       0.00003100      -0.00003000      -0.04597900
17
Lattice="4.920000076 0.0 0.0 -2.460000038 4.260845053 0.0 0.0 0.0 24.0" Properties=species:S:1:pos:R:3:forces:R:3 stress="-0.013815299582231927 6.25586459687279e-05 -3.058339471682796e-07 6.25586459687279e-05 -0.013740420197248707 3.058339471682796e-07 -3.058339471682796e-07 3.058339471682796e-07 0.004733585487106367" free_energy=-150.50737808 energy=-150.50556836 pbc="T T T"
C        0.00000000       0.00000000      14.00275000      -0.00082100      -0.25168900      -0.02121200
C        3.69000000       2.13042000      14.00275000      -0.21929300       0.12668200      -0.02123700
C        2.46000000       0.00000000      14.00393000      -0.00081600       0.00054300       0.01369200
C        1.23000000       2.13042000      14.00275000       0.21761700       0.12666200      -0.02121200
C       -0.00005000       1.42031000      14.02016000       0.00092000      -0.00059000      -0.02448500
C       -1.23005000       3.55073000      14.00113000       0.07320500       0.04118400      -0.00949500
C        2.45995000       1.42031000      14.00113000       0.00088700      -0.08406900      -0.00949600
C        1.22995000       3.55073000      14.00112000      -0.07141700       0.04117700      -0.00944600
C        0.00000000       0.00000000      10.01400000      -0.00009500      -0.28547900       0.01410800
C        3.69000000       2.13042000      10.01400000      -0.24710500       0.14232500       0.01410200
C        2.46000000       0.00000000      10.02223000       0.00028200      -0.00102700       0.01621000
C        1.23000000       2.13042000      10.01400000       0.24732500       0.14154800       0.01411200
C        1.23005000       0.71011000      10.01362000       0.24632600      -0.14291300       0.01432500
C        0.00005000       2.84053000      10.01362000      -0.00189800       0.28705500       0.01432300
C        3.69000000       0.71011000      10.01362000      -0.24669800      -0.14236100       0.01432300
C        2.46000000       2.84053000      10.02283000       0.00155000       0.00098300       0.01423000
Li      -0.00004000       1.42030000      11.83637000       0.00003100      -0.00003000      -0.01284300
17
Lattice="4.920000076 0.0 0.0 -2.460000038 4.260845053 0.0 0.0 0.0 24.0" Properties=species:S:1:pos:R:3:forces:R:3 stress="-0.013822027929069631 6.25960950234832e-05 -2.995924380423964e-07 6.25960950234832e-05 -0.01374708612899515 2.995924380423964e-07 -2.995924380423964e-07 2.995924380423964e-07 0.004671232810938793" free_energy=-150.50771294 energy=-150.5059231 pbc="T T T"
C        0.00000000       0.00000000      14.00135000      -0.00082700      -0.25203500      -0.02000900
C        3.69000000       2.13042000      14.00136000      -0.21960300       0.12686000      -0.02004100
C        2.46000000       0.00000000      14.00495000      -0.00082200       0.00054500      -0.00551400
C        1.23000000       2.13042000      14.00135000       0.21791300       0.12684000      -0.02000900
C       -0.00005000       1.42031000      14.01797000       0.00093000      -0.00059300      -0.02200400
C       -1.23005000       3.55073000      14.00063000       0.07296300       0.04103500      -0.01178600
C        2.45995000       1.42031000      14.00063000       0.00089500      -0.08378400      -0.01178600
C        1.22995000       3.55073000      14.00062000      -0.07116000       0.04102900      -0.01176000
C        0.00000000       0.00000000      10.01527000      -0.00009100      -0.28788600       0.01365600
C        3.69000000       2.13042000      10.01527000      -0.24917800       0.14351900       0.01365600
C        2.46000000       0.00000000      10.02385000       0.00028700      -0.00103400       0.01512500
C        1.23000000       2.13042000      10.01527000       0.24940800       0.14274300       0.01365900
C        1.23005000       0.71011000      10.01491000       0.24832700      -0.14406500       0.01449400
C        0.00005000       2.84053000      10.01491000      -0.00190600       0.28938200       0.01449300
C        3.69000000       0.71011000      10.01491000      -0.24871100      -0.14351200       0.01449300
C        2.46000000       2.84053000      10.02433000       0.00154700       0.00098600       0.01451900
Li      -0.00004000       1.42030000      11.83241000       0.00003000      -0.00003000       0.00881300
17
Lattice="4.920000076 0.0 0.0 -2.460000038 4.260845053 0.0 0.0 0.0 24.0" Properties=species:S:1:pos:R:3:forces:R:3 stress="-0.013815867559562382 6.260233653260908e-05 -2.995924380423964e-07 6.260233653260908e-05 -0.0137409257594879 2.995924380423964e-07 -2.995924380423964e-07 2.995924380423964e-07 0.004677068621971494" free_energy=-150.50781931 energy=-150.50602985 pbc="T T T"
C        0.00000000       0.00000000      14.00074000      -0.00082700      -0.25210500      -0.01777800
C        3.69000000       2.13042000      14.00074000      -0.21966300       0.12689500      -0.01780200
C        2.46000000       0.00000000      14.00466000      -0.00082200       0.00054500      -0.00647900
C        1.23000000       2.13042000      14.00074000       0.21797400       0.12687500      -0.01777700
C       -0.00005000       1.42031000      14.01745000       0.00092800      -0.00059300      -0.01950600
C       -1.23005000       3.55073000      14.00022000       0.07310000       0.04111400      -0.01331900
C        2.45995000       1.42031000      14.00022000       0.00089600      -0.08394300      -0.01331900
C        1.22995000       3.55073000      14.00021000      -0.07129800       0.04110800      -0.01329600
C        0.00000000       0.00000000      10.01560000      -0.00009100      -0.28748200       0.01502900
C        3.69000000       2.13042000      10.01560000      -0.24882800       0.14331700       0.01502900
C        2.46000000       0.00000000      10.02417000       0.00028800      -0.00103400       0.01643800
C        1.23000000       2.13042000      10.01560000       0.24905800       0.14254200       0.01503100
C        1.23005000       0.71011000      10.01527000       0.24798100      -0.14386600       0.01533700
C        0.00005000       2.84053000      10.01527000      -0.00190800       0.28898300       0.01533700
C        3.69000000       0.71011000      10.01527000      -0.24836600      -0.14331200       0.01533700
C        2.46000000       2.84053000      10.02464000       0.00154700       0.00098500       0.01557700
Li      -0.00004000       1.42030000      11.83360000       0.00002900      -0.00003000      -0.00383800
17
Lattice="4.920000076 0.0 0.0 -2.460000038 4.260845053 0.0 0.0 0.0 24.0" Properties=species:S:1:pos:R:3:forces:R:3 stress="-0.013816135944454796 6.257737049610555e-05 -2.995924380423964e-07 6.257737049610555e-05 -0.013741225351925944 2.995924380423964e-07 -2.995924380423964e-07 2.995924380423964e-07 0.004667812463937809" free_energy=-150.50789135 energy=-150.5060953 pbc="T T T"
C        0.00000000       0.00000000      14.00041000      -0.00082500      -0.25213500      -0.01793700
C        3.69000000       2.13042000      14.00041000      -0.21968600       0.12690900      -0.01796000
C        2.46000000       0.00000000      14.00454000      -0.00081900       0.00054400      -0.00828600
C        1.23000000       2.13042000      14.00041000       0.21800300       0.12689000      -0.01793700
C       -0.00005000       1.42031000      14.01709000       0.00092600      -0.00059200      -0.01928000
C       -1.23005000       3.55073000      13.99998000       0.07316300       0.04115300      -0.01402200
C        2.45995000       1.42031000      13.99998000       0.00089300      -0.08401700      -0.01402200
C        1.22995000       3.55073000      13.99997000      -0.07136600       0.04114600      -0.01400200
C        0.00000000       0.00000000      10.01588000      -0.00009200      -0.28764500       0.01526200
C        3.69000000       2.13042000      10.01587000      -0.24897100       0.14340100       0.01526200
C        2.46000000       0.00000000      10.02447000       0.00028700      -0.00103300       0.01686600
C        1.23000000       2.13042000      10.01588000       0.24920000       0.14262600       0.01526400
C        1.23005000       0.71011000      10.01555000       0.24813600      -0.14395700       0.01557700
C        0.00005000       2.84053000      10.01555000      -0.00190700       0.28916000       0.01557700
C        3.69000000       0.71011000      10.01555000      -0.24851900      -0.14340300       0.01557600
C        2.46000000       2.84053000      10.02492000       0.00154900       0.00098300       0.01611400
Li      -0.00003000       1.42030000      11.83352000       0.00002900      -0.00002900      -0.00205000
17
Lattice="4.920000076 0.0 0.0 -2.460000038 4.260845053 0.0 0.0 0.0 24.0" Properties=species:S:1:pos:R:3:forces:R:3 stress="-0.013856406161334996 6.255240445960202e-05 -3.120754562941629e-07 6.255240445960202e-05 -0.013781539259370024 3.120754562941629e-07 -3.120754562941629e-07 3.120754562941629e-07 0.004705323933784367" free_energy=-150.50717377 energy=-150.5053641 pbc="T T T"
C        0.00000000       0.00000000      14.00401000      -0.00082000      -0.25181800      -0.01537800
C        3.69000000       2.13042000      14.00402000      -0.21940600       0.12674600      -0.01542600
C        2.46000000       0.00000000      14.00691000      -0.00081600       0.00054300      -0.01499300
C        1.23000000       2.13042000      14.00401000       0.21772800       0.12672500      -0.01538100
C       -0.00005000       1.42031000      14.02065000       0.00092200      -0.00059000      -0.02212600
C       -1.23005000       3.55073000      14.00309000       0.07279600       0.04095300      -0.00613500
C        2.45995000       1.42031000      14.00309000       0.00088400      -0.08359800      -0.00613400
C        1.22995000       3.55073000      14.00307000      -0.07101400       0.04094400      -0.00609600
C        0.00000000       0.00000000      10.01283000      -0.00009400      -0.28675300       0.01102900
C        3.69000000       2.13042000      10.01282000      -0.24820700       0.14296000       0.01102100
C        2.46000000       0.00000000      10.02111000       0.00028100      -0.00102800       0.01410300
C        1.23000000       2.13042000      10.01282000       0.24842700       0.14218200       0.01102900
C        1.23005000       0.71011000      10.01244000       0.24737200      -0.14351700       0.01145400
C        0.00005000       2.84053000      10.01244000      -0.00189500       0.28825900       0.01145600
C        3.69000000       0.71011000      10.01244000      -0.24774100      -0.14296500       0.01145100
C        2.46000000       2.84053000      10.02167000       0.00155100       0.00098600       0.01229600
Li      -0.00004000       1.42030000      11.83259000       0.00003100      -0.00003100       0.00783100
17
Lattice="4.920000076 0.0 0.0 -2.460000038 4.260845053 0.0 0.0 0.0 24.0" Properties=species:S:1:pos:R:3:forces:R:3 stress="-0.014055485336414165 6.24837478592173e-05 -3.3079998367181266e-07 6.24837478592173e-05 -0.01398071829859521 3.3079998367181266e-07 -3.3079998367181266e-07 3.3079998367181266e-07 0.004705767080932305" free_energy=-150.50609886 energy=-150.50425465 pbc="T T T"
C        0.00000000       0.00000000      14.00968000      -0.00081000      -0.25173800      -0.02211000
C        3.69000000       2.13042000      14.00969000      -0.21932100       0.12669700      -0.02216900
C        2.46000000       0.00000000      14.00992000      -0.00080700       0.00053800       0.02839200
C        1.23000000       2.13042000      14.00968000       0.21766400       0.12667500      -0.02211300
C       -0.00005000       1.42031000      14.02588000       0.00090500      -0.00058100      -0.01338300
C       -1.23005000       3.55073000      14.00845000       0.07228000       0.04067600      -0.01815800
C        2.45995000       1.42031000      14.00845000       0.00086700      -0.08301300      -0.01815800
C        1.22995000       3.55073000      14.00843000      -0.07052700       0.04066500      -0.01810000
C        0.00000000       0.00000000      10.00780000      -0.00009900      -0.28458900       0.01016200
C        3.69000000       2.13042000      10.00779000      -0.24635200       0.14189100       0.01015100
C        2.46000000       0.00000000      10.01567000       0.00027100      -0.00101700       0.01637400
C        1.23000000       2.13042000      10.00779000       0.24655500       0.14111000       0.01016400
C        1.23005000       0.71011000      10.00733000       0.24551800      -0.14245000       0.01140300
C        0.00005000       2.84053000      10.00733000      -0.00187400       0.28608300       0.01140500
C        3.69000000       0.71011000      10.00733000      -0.24585900      -0.14190000       0.01139900
C        2.46000000       2.84053000      10.01631000       0.00155500       0.00098500       0.01420300
Li      -0.00005000       1.42031000      11.83247000       0.00003300      -0.00003200       0.01053700
17
Lattice="4.920000076 0.0 0.0 -2.460000038 4.260845053 0.0 0.0 0.0 24.0" Properties=species:S:1:pos:R:3:forces:R:3 stress="-0.013965426601236798 6.239012522232904e-05 -3.3079998367181266e-07 6.239012522232904e-05 -0.01389082808416424 3.3704149279769594e-07 -3.3079998367181266e-07 3.3704149279769594e-07 0.004820442328102159" free_energy=-150.50588202 energy=-150.50400226 pbc="T T T"
C        0.00000000       0.00000000      14.01078000      -0.00079800      -0.25189100      -0.02371300
C        3.69000000       2.13042000      14.01079000      -0.21943700       0.12676400      -0.02376900
C        2.46000000       0.00000000      14.01128000      -0.00079500       0.00053200       0.02567200
C        1.23000000       2.13042000      14.01078000       0.21780300       0.12674200      -0.02371500
C       -0.00005000       1.42031000      14.02682000       0.00089400      -0.00057500      -0.01678200
C       -1.23005000       3.55073000      14.00973000       0.07234200       0.04072300      -0.02120600
C        2.45995000       1.42031000      14.00973000       0.00085700      -0.08309100      -0.02120900
C        1.22995000       3.55073000      14.00971000      -0.07060700       0.04071200      -0.02115100
C        0.00000000       0.00000000      10.00661000      -0.00010600      -0.28410400       0.00537700
C        3.69000000       2.13042000      10.00660000      -0.24595000       0.14166400       0.00536900
C        2.46000000       0.00000000      10.01459000       0.00026300      -0.00100500       0.01011000
C        1.23000000       2.13042000      10.00660000       0.24613800       0.14088200       0.00538000
C        1.23005000       0.71011000      10.00616000       0.24496400      -0.14213600       0.02752900
C        0.00005000       2.84053000      10.00615000      -0.00186800       0.28542800       0.02753100
C        3.69000000       0.71011000      10.00615000      -0.24529400      -0.14158600       0.02752400
C        2.46000000       2.84053000      10.01519000       0.00156100       0.00097400       0.00811800
Li      -0.00005000       1.42031000      11.83233000       0.00003200      -0.00003200       0.00893500
17
Lattice="4.920000076 0.0 0.0 -2.460000038 4.260845053 0.0 0.0 0.0 24.0" Properties=species:S:1:pos:R:3:forces:R:3 stress="-0.01405599714016249 6.253992144135026e-05 -3.3079998367181266e-07 6.253992144135026e-05 -0.013981136479706646 3.3079998367181266e-07 -3.3079998367181266e-07 3.3079998367181266e-07 0.004722044936732609" free_energy=-150.50605951 energy=-150.50423441 pbc="T T T"
C        0.00000000       0.00000000      14.00984000      -0.00081700      -0.25168900      -0.01939700
C        3.69000000       2.13042000      14.00985000      -0.21928800       0.12667800      -0.01945000
C        2.46000000       0.00000000      14.01053000      -0.00081400       0.00054200       0.02720900
C        1.23000000       2.13042000      14.00984000       0.21761700       0.12665600      -0.01939900
C       -0.00005000       1.42031000      14.02598000       0.00091200      -0.00058500      -0.01144800
C       -1.23005000       3.55073000      14.00882000       0.07220800       0.04062600      -0.01748900
C        2.45995000       1.42031000      14.00882000       0.00087500      -0.08292500      -0.01748800
C        1.22995000       3.55073000      14.00880000      -0.07043900       0.04061500      -0.01743600
C        0.00000000       0.00000000      10.00757000      -0.00009600      -0.28452500       0.00741800
C        3.69000000       2.13042000      10.00756000      -0.24628800       0.14185200       0.00741100
C        2.46000000       0.00000000      10.01558000       0.00027400      -0.00102200       0.01043100
C        1.23000000       2.13042000      10.00757000       0.24649800       0.14107000       0.00742200
C        1.23005000       0.71011000      10.00687000       0.24544100      -0.14240300       0.01404600
C        0.00005000       2.84053000      10.00687000      -0.00187800       0.28600500       0.01404800
C        3.69000000       0.71011000      10.00687000      -0.24579100      -0.14185300       0.01404400
C        2.46000000       2.84053000      10.01618000       0.00155300       0.00099000       0.01272900
Li      -0.00005000       1.42031000      11.83245000       0.00003300      -0.00003200       0.00734900
17
Lattice="4.920000076 0.0 0.0 -2.460000038 4.260845053 0.0 0.0 0.0 24.0" Properties=species:S:1:pos:R:3:forces:R:3 stress="-0.0140534193968935 6.255240445960202e-05 -3.2455847454592937e-07 6.255240445960202e-05 -0.013978540011910278 3.2455847454592937e-07 -3.2455847454592937e-07 3.2455847454592937e-07 0.004699450673696911" free_energy=-150.5062514 energy=-150.50443524 pbc="T T T"
C        0.00000000       0.00000000      14.00862000      -0.00082000      -0.25180000      -0.01842300
C        3.69000000       2.13042000      14.00862000      -0.21938700       0.12673400      -0.01845300
C        2.46000000       0.00000000      14.01128000      -0.00081600       0.00054200       0.00937000
C        1.23000000       2.13042000      14.00862000       0.21771200       0.12671400      -0.01842100
C       -0.00005000       1.42031000      14.02468000       0.00091400      -0.00058500      -0.01002900
C       -1.23005000       3.55073000      14.00807000       0.07236500       0.04071400      -0.01621800
C        2.45995000       1.42031000      14.00807000       0.00087700      -0.08310400      -0.01622400
C        1.22995000       3.55073000      14.00806000      -0.07059300       0.04070400      -0.01619100
C        0.00000000       0.00000000      10.00868000      -0.00009400      -0.28504700       0.00341900
C        3.69000000       2.13042000      10.00867000      -0.24673400       0.14210900       0.00342200
C        2.46000000       0.00000000      10.01669000       0.00027800      -0.00102500      -0.00054300
C        1.23000000       2.13042000      10.00867000       0.24694900       0.14132800       0.00342000
C        1.23005000       0.71011000      10.00703000       0.24593800      -0.14268900       0.02637300