29
Lattice="6.508500099 0.0 0.0 -3.25425005 5.636526426 0.0 0.0 0.0 24.0" Properties=species:S:1:pos:R:3:forces:R:3 stress="-0.007278760561477294 1.537907848617635e-05 -0.0 1.537907848617635e-05 -0.007272107112749101 -0.0 -0.0 -0.0 -0.015601725599714858" free_energy=-260.57974405 energy=-260.57868157 pbc="T T T"
C        0.00000000       0.00000000      13.50000000      -0.08423100      -0.15252400       0.24255900
C       -0.46487000       2.41565000      13.50000000      -0.41782400      -0.07015300       0.66736800
C       -0.92980000       4.83129000      13.50000000      -0.09972900       0.12576000       0.24258200
C        1.85958000       1.61041000      13.50000000       0.29528500      -0.36092300       0.66724600
C        1.39467000       4.02611000      13.50000000       0.13838600       0.42918700       0.66748400
C        4.18405000       0.80523000      13.50000000       0.00565900       0.02039800       0.28751700
C        3.71912000       3.22088000      13.50000000       0.14808500       0.00028800       0.24259800
C       -2.32448000       4.56294000      13.50000000       0.00796400       0.00967400       0.28754700
C        0.46490000       1.34206000      13.50000000      -0.16449500      -0.41439900       0.66747300
C       -0.00003000       3.75770000      13.50000000      -0.27891700       0.34219600       0.66737000
C        2.78935000       0.53682000      13.50000000       0.09728900      -0.14441300       0.24262300
C        2.32448000       2.95247000      13.50000000       0.43631400       0.07131300       0.66724400
C        1.85954000       5.36812000      13.50000000       0.09030300       0.14383700       0.24263400
C        4.64892000       2.14723000      13.50000000      -0.17311100       0.00044700       0.24260600
C        0.00000000       0.00000000      10.50000000      -0.08423100      -0.15252400      -0.24255900
C       -0.46487000       2.41565000      10.50000000      -0.41782400      -0.07015300      -0.66736800
C       -0.92980000       4.83129000      10.50000000      -0.09972900       0.12576000      -0.24258200
C        1.85958000       1.61041000      10.50000000       0.29528500      -0.36092300      -0.66724600
C        1.39467000       4.02611000      10.50000000       0.13838600       0.42918700      -0.66748400
C        4.18405000       0.80523000      10.50000000       0.00565900       0.02039800      -0.28751700
C        3.71912000       3.22088000      10.50000000       0.14808500       0.00028800      -0.24259800
C       -2.32448000       4.56294000      10.50000000       0.00796400       0.00967400      -0.28754700
C        0.46490000       1.34206000      10.50000000      -0.16449500      -0.41439900      -0.66747300
C       -0.00003000       3.75770000      10.50000000      -0.27891700       0.34219600      -0.66737000
C        2.78935000       0.53682000      10.50000000       0.09728900      -0.14441300      -0.24262300
C        2.32448000       2.95247000      10.50000000       0.43631400       0.07131300      -0.66724400
C        1.85954000       5.36812000      10.50000000       0.09030300       0.14383700      -0.24263400
C        4.64892000       2.14723000      10.50000000      -0.17311100       0.00044700      -0.24260600
Li       0.92980000       2.68406000      12.00000000      -0.00195500      -0.00137500      -0.00000000
29
Lattice="6.508500099 0.0 0.0 -3.25425005 5.636526426 0.0 0.0 0.0 24.0" Properties=species:S:1:pos:R:3:forces:R:3 stress="-0.0072968609379423545 2.007893485796644e-05 -0.0 2.007893485796644e-05 -0.007273392863629034 -0.0 -0.0 -0.0 -0.013474394595285311" free_energy=-260.85853476 energy=-260.85802791 pbc="T T T"
C        0.00000000       0.00000000      13.51170000      -0.08695700      -0.16115300       0.29945300
C       -0.46487000       2.41565000      13.53220000      -0.39278700      -0.06770400       0.50401600
C       -0.92980000       4.83129000      13.51170000      -0.09776000       0.13301800       0.29134200
C        1.85958000       1.61041000      13.53219000       0.26413200      -0.32316400       0.50316800
C        1.39467000       4.02611000      13.53220000       0.13241600       0.38797500       0.50373700
C        4.18405000       0.80523000      13.51387000      -0.00563100       0.01761500       0.19324400
C        3.71912000       3.22088000      13.51170000       0.16177000      -0.00776300       0.29117600
C       -2.32448000       4.56294000      13.51387000       0.00071300       0.01461000       0.19949700
C        0.46490000       1.34206000      13.53220000      -0.15096500      -0.37911600       0.50898700
C       -0.00003000       3.75770000      13.53220000      -0.25638900       0.31378900       0.52188000
C        2.78935000       0.53682000      13.51170000       0.10283500      -0.15247900       0.29430000
C        2.32448000       2.95247000      13.53219000       0.40687200       0.07630400       0.52471700
C        1.85954000       5.36812000      13.51171000       0.10306800       0.15019900       0.28806800
C        4.64892000       2.14723000      13.51170000      -0.18048400      -0.00142200       0.29438100
C        0.00000000       0.00000000      10.48830000      -0.08695700      -0.16115300      -0.29945300
C       -0.46487000       2.41565000      10.46780000      -0.39278700      -0.06770400      -0.50401600
C       -0.92980000       4.83129000      10.48830000      -0.09776000       0.13301800      -0.29134200
C        1.85958000       1.61041000      10.46781000       0.26413200      -0.32316400      -0.50316800
C        1.39467000       4.02611000      10.46780000       0.13241600       0.38797500      -0.50373700
C        4.18405000       0.80523000      10.48613000      -0.00563100       0.01761500      -0.19324400
C        3.71912000       3.22088000      10.48830000       0.16177000      -0.00776300      -0.29117600
C       -2.32448000       4.56294000      10.48613000       0.00071300       0.01461000      -0.19949700
C        0.46490000       1.34206000      10.46780000      -0.15096500      -0.37911600      -0.50898700
C       -0.00003000       3.75770000      10.46780000      -0.25638900       0.31378900      -0.52188000
C        2.78935000       0.53682000      10.48830000       0.10283500      -0.15247900      -0.29430000
C        2.32448000       2.95247000      10.46781000       0.40687200       0.07630400      -0.52471700
C        1.85954000       5.36812000      10.48829000       0.10306800       0.15019900      -0.28806800
C        4.64892000       2.14723000      10.48830000      -0.18048400      -0.00142200      -0.29438100
Li       0.92971000       2.68399000      12.00000000      -0.00166800      -0.00142100      -0.00000000
29
Lattice="6.508500099 0.0 0.0 -3.25425005 5.636526426 0.0 0.0 0.0 24.0" Properties=species:S:1:pos:R:3:forces:R:3 stress="-0.0072843841611997156 -7.464844914556376e-06 -0.0 -7.464844914556376e-06 -0.00733707498124042 -0.0 -0.0 -0.0 -0.007878382343200898" free_energy=-261.40155201 energy=-261.40104638 pbc="T T T"
C        0.00000000       0.00000000      13.56049000      -0.08373600      -0.15200100       0.22158100
C       -0.46487000       2.41565000      13.61431000      -0.36140000      -0.04516300       0.23754200
C       -0.92980000       4.83129000      13.55917000      -0.08290100       0.12922800       0.25238100
C        1.85958000       1.61041000      13.61417000       0.24081700      -0.26687400       0.24187900
C        1.39467000       4.02611000      13.61427000       0.10870000       0.32084500       0.24568500
C        4.18405000       0.80523000      13.54535000      -0.00279300       0.00382200       0.31613200
C        3.71912000       3.22088000      13.55914000       0.15993700      -0.01134500       0.25820000
C       -2.32448000       4.56294000      13.54637000       0.00951000       0.01059300       0.30671600
C        0.46490000       1.34206000      13.61513000      -0.12175000      -0.32837000       0.22211300
C       -0.00003000       3.75770000      13.61722000      -0.22831900       0.27629900       0.17183300
C        2.78935000       0.53682000      13.55965000       0.06861800      -0.14455300       0.22748200
C        2.32448000       2.95247000      13.61768000       0.36274900       0.09115700       0.16361800
C        1.85954000       5.36812000      13.55864000       0.08686800       0.13946300       0.23744300
C        4.64892000       2.14723000      13.55966000      -0.15648100      -0.02480700       0.22782700
C        0.00000000       0.00000000      10.43951000      -0.08373600      -0.15200100      -0.22158100
C       -0.46487000       2.41565000      10.38569000      -0.36140000      -0.04516300      -0.23754200
C       -0.92980000       4.83129000      10.44083000      -0.08290100       0.12922800      -0.25238100
C        1.85958000       1.61041000      10.38583000       0.24081700      -0.26687400      -0.24187900
C        1.39467000       4.02611000      10.38573000       0.10870000       0.32084500      -0.24568500
C        4.18405000       0.80523000      10.45465000      -0.00279300       0.00382200      -0.31613200
C        3.71912000       3.22088000      10.44086000       0.15993700      -0.01134500      -0.25820000
C       -2.32448000       4.56294000      10.45363000       0.00951000       0.01059300      -0.30671600
C        0.46490000       1.34206000      10.38487000      -0.12175000      -0.32837000      -0.22211300
C       -0.00003000       3.75770000      10.38278000      -0.22831900       0.27629900      -0.17183300
C        2.78935000       0.53682000      10.44035000       0.06861800      -0.14455300      -0.22748200
C        2.32448000       2.95247000      10.38232000       0.36274900       0.09115700      -0.16361800
C        1.85954000       5.36812000      10.44136000       0.08686800       0.13946300      -0.23744300
C        4.64892000       2.14723000      10.44034000      -0.15648100      -0.02480700      -0.22782700
Li       0.92944000       2.68376000      12.00000000       0.00035800       0.00341000      -0.00000000
29
Lattice="6.508500099 0.0 0.0 -3.25425005 5.636526426 0.0 0.0 0.0 24.0" Properties=species:S:1:pos:R:3:forces:R:3 stress="-0.0072895895798107 7.151521156437037e-05 -0.0 7.151521156437037e-05 -0.007246785310225394 -0.0 -0.0 -0.0 -0.004159697447508779" free_energy=-261.65209206 energy=-261.65158076 pbc="T T T"
C        0.00000000       0.00000000      13.60022000      -0.07314500      -0.13534300       0.21467000
C       -0.46487000       2.41565000      13.67044000      -0.32649400      -0.05193800       0.07543200
C       -0.92980000       4.83129000      13.60074000      -0.08061400       0.13093100       0.20210500
C        1.85958000       1.61041000      13.67057000       0.22472100      -0.26415300       0.07546000
C        1.39467000       4.02611000      13.67102000       0.10835700       0.32469300       0.05766900
C        4.18405000       0.80523000      13.58473000      -0.01746700       0.00857800       0.26026300
C        3.71912000       3.22088000      13.60117000       0.15121400       0.00217100       0.19632800
C       -2.32448000       4.56294000      13.58547000       0.00937700      -0.00477400       0.26392000
C        0.46490000       1.34206000      13.67039000      -0.12186600      -0.31239800       0.08641300
C       -0.00003000       3.75770000      13.66945000      -0.21168200       0.26169700       0.09239200
C        2.78935000       0.53682000      13.59947000       0.06325600      -0.13625600       0.23126000
C        2.32448000       2.95247000      13.66947000       0.33333300       0.06257900       0.08644200
C        1.85954000       5.36812000      13.59878000       0.07157800       0.12946000       0.23904700
C        4.64892000       2.14723000      13.59952000      -0.13145500      -0.01584200       0.23154400
C        0.00000000       0.00000000      10.39978000      -0.07314500      -0.13534300      -0.21467000
C       -0.46487000       2.41565000      10.32956000      -0.32649400      -0.05193800      -0.07543200
C       -0.92980000       4.83129000      10.39926000      -0.08061400       0.13093100      -0.20210500
C        1.85958000       1.61041000      10.32943000       0.22472100      -0.26415300      -0.07546000
C        1.39467000       4.02611000      10.32898000       0.10835700       0.32469300      -0.05766900
C        4.18405000       0.80523000      10.41527000      -0.01746700       0.00857800      -0.26026300
C        3.71912000       3.22088000      10.39883000       0.15121400       0.00217100      -0.19632800
C       -2.32448000       4.56294000      10.41453000       0.00937700      -0.00477400      -0.26392000
C        0.46490000       1.34206000      10.32961000      -0.12186600      -0.31239800      -0.08641300
C       -0.00003000       3.75770000      10.33055000      -0.21168200       0.26169700      -0.09239200
C        2.78935000       0.53682000      10.40053000       0.06325600      -0.13625600      -0.23126000
C        2.32448000       2.95247000      10.33053000       0.33333300       0.06257900      -0.08644200
C        1.85954000       5.36812000      10.40122000       0.07157800       0.12946000      -0.23904700
C        4.64892000       2.14723000      10.40048000      -0.13145500      -0.01584200      -0.23154400
Li       0.92934000       2.68393000      12.00000000       0.00177100       0.00118800      -0.00000000
29
Lattice="6.508500099 0.0 0.0 -3.25425005 5.636526426 0.0 0.0 0.0 24.0" Properties=species:S:1:pos:R:3:forces:R:3 stress="-0.0072678628865435 2.316224036615277e-05 -0.0 2.316224036615277e-05 -0.0072338466618074365 -0.0 -0.0 -0.0 -0.001684870422495682" free_energy=-261.81961177 energy=-261.81877146 pbc="T T T"
C        0.00000000       0.00000000      13.64322000      -0.07065700      -0.12814700       0.18280600
C       -0.46487000       2.41565000      13.71410000      -0.30205600      -0.04382700       0.00986900
C       -0.92980000       4.83129000      13.64293000      -0.07568900       0.11696900       0.19263800
C        1.85958000       1.61041000      13.71430000       0.21734000      -0.24646100       0.00165700
C        1.39467000       4.02611000      13.71331000       0.09180600       0.30623400       0.01751200
C        4.18405000       0.80523000      13.62768000      -0.01290400       0.01552300       0.23519200
C        3.71912000       3.22088000      13.64298000       0.14313200      -0.00500900       0.18844300
C       -2.32448000       4.56294000      13.62888000       0.00971500       0.00364000       0.20602800
C        0.46490000       1.34206000      13.71493000      -0.11665000      -0.30347200      -0.00222300
C       -0.00003000       3.75770000      13.71401000      -0.19941100       0.24736400       0.00979700
C        2.78935000       0.53682000      13.64377000       0.05893100      -0.12268900       0.16792100
C        2.32448000       2.95247000      13.71346000       0.30990600       0.05627700       0.02094800
C        1.85954000       5.36812000      13.64365000       0.08099900       0.12477900       0.17156800
C        4.64892000       2.14723000      13.64385000      -0.13379400      -0.02165300       0.16680500
C        0.00000000       0.00000000      10.35678000      -0.07065700      -0.12814700      -0.18280600
C       -0.46487000       2.41565000      10.28590000      -0.30205600      -0.04382700      -0.00986900
C       -0.92980000       4.83129000      10.35707000      -0.07568900       0.11696900      -0.19263800
C        1.85958000       1.61041000      10.28570000       0.21734000      -0.24646100      -0.00165700
C        1.39467000       4.02611000      10.28669000       0.09180600       0.30623400      -0.01751200
C        4.18405000       0.80523000      10.37232000      -0.01290400       0.01552300      -0.23519200
C        3.71912000       3.22088000      10.35702000       0.14313200      -0.00500900      -0.18844300
C       -2.32448000       4.56294000      10.37112000       0.00971500       0.00364000      -0.20602800
C        0.46490000       1.34206000      10.28507000      -0.11665000      -0.30347200       0.00222300
C       -0.00003000       3.75770000      10.28599000      -0.19941100       0.24736400      -0.00979700
C        2.78935000       0.53682000      10.35623000       0.05893100      -0.12268900      -0.16792100
C        2.32448000       2.95247000      10.28654000       0.30990600       0.05627700      -0.02094800
C        1.85954000       5.36812000      10.35635000       0.08099900       0.12477900      -0.17156800
C        4.64892000       2.14723000      10.35615000      -0.13379400      -0.02165300      -0.16680500
Li       0.92941000       2.68403000      12.00000000      -0.00133400       0.00094000       0.00000000
29
Lattice="6.508500099 0.0 0.0 -3.25425005 5.636526426 0.0 0.0 0.0 24.0" Properties=species:S:1:pos:R:3:forces:R:3 stress="-0.007356798150078212 1.3856150259460834e-06 -0.0 1.3856150259460834e-06 -0.007377195401901598 -0.0 -0.0 -0.0 0.0008116770542754884" free_energy=-261.98013001 energy=-261.97790508 pbc="T T T"
C        0.00000000       0.00000000      13.70656000      -0.06864900      -0.13940400       0.14326800
C       -0.46487000       2.41565000      13.76783000      -0.27740200      -0.03870500      -0.03147300
C       -0.92980000       4.83129000      13.70710000      -0.09259300       0.09548700       0.12086300
C        1.85958000       1.61041000      13.76719000       0.19261100      -0.21577700      -0.02341800
C        1.39467000       4.02611000      13.76722000       0.08110500       0.25396600      -0.01852100
C        4.18405000       0.80523000      13.69392000       0.00169900       0.02206700       0.15669900
C        3.71912000       3.22088000      13.70656000       0.12190100      -0.00193700       0.12951700
C       -2.32448000       4.56294000      13.69224000       0.00461600       0.01432000       0.19302700
C        0.46490000       1.34206000      13.76777000      -0.10003900      -0.26081300      -0.03459900
C       -0.00003000       3.75770000      13.76784000      -0.17727900       0.21392900      -0.02152900
C        2.78935000       0.53682000      13.70610000       0.09134000      -0.12521200       0.14852800
C        2.32448000       2.95247000      13.76818000       0.29360100       0.06807900      -0.03100600
C        1.85954000       5.36812000      13.70663000       0.08167400       0.12375300       0.12875500
C        4.64892000       2.14723000      13.70610000      -0.15219200      -0.00814400       0.15002200
C        0.00000000       0.00000000      10.29344000      -0.06864900      -0.13940400      -0.14326800
C       -0.46487000       2.41565000      10.23217000      -0.27740200      -0.03870500       0.03147300
C       -0.92980000       4.83129000      10.29290000      -0.09259300       0.09548700      -0.12086300
C        1.85958000       1.61041000      10.23281000       0.19261100      -0.21577700       0.02341800
C        1.39467000       4.02611000      10.23278000       0.08110500       0.25396600       0.01852100
C        4.18405000       0.80523000      10.30608000       0.00169900       0.02206700      -0.15669900
C        3.71912000       3.22088000      10.29344000       0.12190100      -0.00193700      -0.12951700
C       -2.32448000       4.56294000      10.30776000       0.00461600       0.01432000      -0.19302700
C        0.46490000       1.34206000      10.23223000      -0.10003900      -0.26081300       0.03459900
C       -0.00003000       3.75770000      10.23216000      -0.17727900       0.21392900       0.02152900
C        2.78935000       0.53682000      10.29390000       0.09134000      -0.12521200      -0.14852800
C        2.32448000       2.95247000      10.23182000       0.29360100       0.06807900       0.03100600
C        1.85954000       5.36812000      10.29337000       0.08167400       0.12375300      -0.12875500
C        4.64892000       2.14723000      10.29390000      -0.15219200      -0.00814400      -0.15002200
Li       0.92923000       2.68420000      12.00000000      -0.00078700      -0.00321800       0.00000000
29
Lattice="6.508500099 0.0 0.0 -3.25425005 5.636526426 0.0 0.0 0.0 24.0" Properties=species:S:1:pos:R:3:forces:R:3 stress="-0.0078097756748891885 4.470792986870178e-05 -0.0 4.470792986870178e-05 -0.007729784493931869 -0.0 -0.0 -0.0 0.0028932765213396877" free_energy=-262.11883249 energy=-262.11687998 pbc="T T T"
C        0.00000000       0.00000000      13.80708000      -0.07018800      -0.14938200       0.02846500
C       -0.46487000       2.41565000      13.84515000      -0.21725400      -0.02967200      -0.03213200
C       -0.92980000       4.83129000      13.80543000      -0.08845200       0.12569200       0.07818800
C        1.85958000       1.61041000      13.84482000       0.15878300      -0.18104500      -0.02697300
C        1.39467000       4.02611000      13.84582000       0.06707700       0.22001400      -0.03837800
C        4.18405000       0.80523000      13.79663000      -0.00580400       0.00755400       0.12352800
C        3.71912000       3.22088000      13.80536000       0.15277900       0.00643600       0.08079300
C       -2.32448000       4.56294000      13.79713000       0.01347000      -0.00464100       0.10314600
C        0.46490000       1.34206000      13.84423000      -0.09640300      -0.21492800      -0.01440300
C       -0.00003000       3.75770000      13.84652000      -0.14476800       0.18011500      -0.05445600
C        2.78935000       0.53682000      13.80683000       0.07470900      -0.13785500       0.03687800
C        2.32448000       2.95247000      13.84623000       0.23918900       0.06242500      -0.05691200
C        1.85954000       5.36812000      13.80567000       0.05906400       0.14291500       0.07453500
C        4.64892000       2.14723000      13.80695000      -0.14228700      -0.02898200       0.03627500
C        0.00000000       0.00000000      10.19292000      -0.07018800      -0.14938200      -0.02846500
C       -0.46487000       2.41565000      10.15485000      -0.21725400      -0.02967200       0.03213200
C       -0.92980000       4.83129000      10.19457000      -0.08845200       0.12569200      -0.07818800
C        1.85958000       1.61041000      10.15518000       0.15878300      -0.18104500       0.02697300
C        1.39467000       4.02611000      10.15418000       0.06707700       0.22001400       0.03837800
C        4.18405000       0.80523000      10.20337000      -0.00580400       0.00755400      -0.12352800
C        3.71912000       3.22088000      10.19464000       0.15277900       0.00643600      -0.08079300
C       -2.32448000       4.56294000      10.20287000       0.01347000      -0.00464100      -0.10314600
C        0.46490000       1.34206000      10.15577000      -0.09640300      -0.21492800       0.01440300
C       -0.00003000       3.75770000      10.15348000      -0.14476800       0.18011500       0.05445600
C        2.78935000       0.53682000      10.19317000       0.07470900      -0.13785500      -0.03687800
C        2.32448000       2.95247000      10.15377000       0.23918900       0.06242500       0.05691200
C        1.85954000       5.36812000      10.19433000       0.05906400       0.14291500      -0.07453500
C        4.64892000       2.14723000      10.19305000      -0.14228700      -0.02898200      -0.03627500
Li       0.92896000       2.68400000      12.00000000       0.00016500       0.00270400       0.00000000
29
Lattice="6.508500099 0.0 0.0 -3.25425005 5.636526426 0.0 0.0 0.0 24.0" Properties=species:S:1:pos:R:3:forces:R:3 stress="-0.007727668622338196 2.6089508146192015e-05 -0.0 2.6089508146192015e-05 -0.007774149140798648 -0.0 -0.0 -0.0 0.004046008358780815" free_energy=-262.15345983 energy=-262.15264822 pbc="T T T"
C        0.00000000       0.00000000      13.86187000      -0.06985000      -0.15154500       0.03043000
C       -0.46487000       2.41565000      13.88707000      -0.19235900      -0.02477600      -0.02801800
C       -0.92980000       4.83129000      13.86335000      -0.10409200       0.12602300       0.03024100
C        1.85958000       1.61041000      13.88708000       0.14893200      -0.16967000      -0.03492200
C        1.39467000       4.02611000      13.88763000       0.05492600       0.20217900      -0.03540000
C        4.18405000       0.80523000      13.85946000      -0.00045900       0.00894900       0.04172200
C        3.71912000       3.22088000      13.86350000       0.15626000       0.01451800       0.02532100
C       -2.32448000       4.56294000      13.85866000       0.01211500       0.01255800       0.05336500
C        0.46490000       1.34206000      13.88709000      -0.08846700      -0.20163700      -0.03556700
C       -0.00003000       3.75770000      13.88725000      -0.12825800       0.16321400      -0.03211500
C        2.78935000       0.53682000      13.86222000       0.08995500      -0.13231000       0.04280400
C        2.32448000       2.95247000      13.88668000       0.20403200       0.03352600      -0.02408400
C        1.85954000       5.36812000      13.86350000       0.07514700       0.14117500       0.03520000
C        4.64892000       2.14723000      13.86233000      -0.15808300      -0.02300400       0.04183900
C        0.00000000       0.00000000      10.13813000      -0.06985000      -0.15154500      -0.03043000
C       -0.46487000       2.41565000      10.11293000      -0.19235900      -0.02477600       0.02801800
C       -0.92980000       4.83129000      10.13665000      -0.10409200       0.12602300      -0.03024100
C        1.85958000       1.61041000      10.11292000       0.14893200      -0.16967000       0.03492200
C        1.39467000       4.02611000      10.11237000       0.05492600       0.20217900       0.03540000
C        4.18405000       0.80523000      10.14054000      -0.00045900       0.00894900      -0.04172200
C        3.71912000       3.22088000      10.13650000       0.15626000       0.01451800      -0.02532100
C       -2.32448000       4.56294000      10.14134000       0.01211500       0.01255800      -0.05336500
C        0.46490000       1.34206000      10.11291000      -0.08846700      -0.20163700       0.03556700
C       -0.00003000       3.75770000      10.11275000      -0.12825800       0.16321400       0.03211500
C        2.78935000       0.53682000      10.13778000       0.08995500      -0.13231000      -0.04280400
C        2.32448000       2.95247000      10.11332000       0.20403200       0.03352600       0.02408400
C        1.85954000       5.36812000      10.13650000       0.07514700       0.14117500      -0.03520000
C        4.64892000       2.14723000      10.13767000      -0.15808300      -0.02300400      -0.04183900
Li       0.92884000       2.68417000      12.00000000       0.00040400       0.00160000       0.00000000
29
Lattice="6.508500099 0.0 0.0 -3.25425005 5.636526426 0.0 0.0 0.0 24.0" Properties=species:S:1:pos:R:3:forces:R:3 stress="-0.007689401929887404 1.0292248548581494e-05 -0.0 1.0292248548581494e-05 -0.007662151501043799 -0.0 -0.0 -0.0 0.004903123599492734" free_energy=-262.15923961 energy=-262.15870918 pbc="T T T"
C        0.00000000       0.00000000      13.89475000      -0.07019600      -0.15534000       0.02008600
C       -0.46487000       2.41565000      13.90982000      -0.18504700      -0.02376800      -0.02056400
C       -0.92980000       4.83129000      13.89663000      -0.10782500       0.11516700      -0.00002200
C        1.85958000       1.61041000      13.90937000       0.14323000      -0.16251600      -0.01861800
C        1.39467000       4.02611000      13.90994000       0.05307200       0.18909800      -0.01464600
C        4.18405000       0.80523000      13.89517000       0.00261900       0.02438400       0.01645700
C        3.71912000       3.22088000      13.89647000       0.14414700       0.01244300       0.00185600
C       -2.32448000       4.56294000      13.89508000       0.00629300       0.01811300       0.00661500
C        0.46490000       1.34206000      13.90932000      -0.08488500      -0.19535100      -0.02927400
C       -0.00003000       3.75770000      13.90963000      -0.12218200       0.15365500      -0.00751000
C        2.78935000       0.53682000      13.89616000       0.10672500      -0.13444700       0.00832400
C        2.32448000       2.95247000      13.90957000       0.19561200       0.02980900      -0.01075700
C        1.85954000       5.36812000      13.89721000       0.08623200       0.14208000      -0.00487100
C        4.64892000       2.14723000      13.89620000      -0.16795400      -0.01296800       0.00953200
C        0.00000000       0.00000000      10.10525000      -0.07019600      -0.15534000      -0.02008600
C       -0.46487000       2.41565000      10.09018000      -0.18504700      -0.02376800       0.02056400
C       -0.92980000       4.83129000      10.10337000      -0.10782500       0.11516700       0.00002200
C        1.85958000       1.61041000      10.09063000       0.14323000      -0.16251600       0.01861800
C        1.39467000       4.02611000      10.09006000       0.05307200       0.18909800       0.01464600
C        4.18405000       0.80523000      10.10483000       0.00261900       0.02438400      -0.01645700
C        3.71912000       3.22088000      10.10353000       0.14414700       0.01244300      -0.00185600
C       -2.32448000       4.56294000      10.10492000       0.00629300       0.01811300      -0.00661500
C        0.46490000       1.34206000      10.09068000      -0.08488500      -0.19535100       0.02927400
C       -0.00003000       3.75770000      10.09037000      -0.12218200       0.15365500       0.00751000
C        2.78935000       0.53682000      10.10384000       0.10672500      -0.13444700      -0.00832400
C        2.32448000       2.95247000      10.09043000       0.19561200       0.02980900       0.01075700