29
Lattice="6.508500099 0.0 0.0 -3.25425005 5.636526426 0.0 0.0 0.0 24.0" Properties=species:S:1:pos:R:3:forces:R:3 stress="-0.007848092299412987 1.8112859483313214e-05 -0.0 1.8112859483313214e-05 -0.007841495024266927 -0.0 -0.0 -0.0 0.0031721471490841523" free_energy=-262.14297262 energy=-262.14160829 pbc="T T T"
C        0.00000000       0.00000000      13.85000000      -0.07335400      -0.15707200      -0.02912300
C       -0.46487000       2.41565000      13.85000000      -0.20315100      -0.03383700       0.06408700
C       -0.92980000       4.83129000      13.85000000      -0.10600400       0.12906000      -0.02154500
C        1.85958000       1.61041000      13.85000000       0.13980900      -0.17265700       0.06568700
C        1.39467000       4.02611000      13.85000000       0.06624400       0.20635600       0.06423900
C        4.18405000       0.80523000      13.85000000      -0.00063100       0.00595600       0.02244500
C        3.71912000       3.22088000      13.85000000       0.16213600       0.01382900      -0.02026400
C       -2.32448000       4.56294000      13.85000000       0.00996800       0.01537800       0.02903200
C        0.46490000       1.34206000      13.85000000      -0.09153200      -0.20089900       0.07214200
C       -0.00003000       3.75770000      13.85000000      -0.13270600       0.16618400       0.07107500
C        2.78935000       0.53682000      13.85000000       0.07845600      -0.13995700      -0.01990600
C        2.32448000       2.95247000      13.85000000       0.22278700       0.05841200       0.06605900
C        1.85954000       5.36812000      13.85000000       0.08342800       0.14377600      -0.01368500
C        4.64892000       2.14723000      13.85000000      -0.15516500      -0.03452000      -0.01990200
C        0.00000000       0.00000000      10.15000000      -0.07335400      -0.15707200       0.02912300
C       -0.46487000       2.41565000      10.15000000      -0.20315100      -0.03383700      -0.06408700
C       -0.92980000       4.83129000      10.15000000      -0.10600400       0.12906000       0.02154500
C        1.85958000       1.61041000      10.15000000       0.13980900      -0.17265700      -0.06568700
C        1.39467000       4.02611000      10.15000000       0.06624400       0.20635600      -0.06423900
C        4.18405000       0.80523000      10.15000000      -0.00063100       0.00595600      -0.02244500
C        3.71912000       3.22088000      10.15000000       0.16213600       0.01382900       0.02026400
C       -2.32448000       4.56294000      10.15000000       0.00996800       0.01537800      -0.02903200
C        0.46490000       1.34206000      10.15000000      -0.09153200      -0.20089900      -0.07214200
C       -0.00003000       3.75770000      10.15000000      -0.13270600       0.16618400      -0.07107500
C        2.78935000       0.53682000      10.15000000       0.07845600      -0.13995700       0.01990600
C        2.32448000       2.95247000      10.15000000       0.22278700       0.05841200      -0.06605900
C        1.85954000       5.36812000      10.15000000       0.08342800       0.14377600       0.01368500
C        4.64892000       2.14723000      10.15000000      -0.15516500      -0.03452000       0.01990200
Li       0.92980000       2.68406000      12.00000000      -0.00056600      -0.00002000      -0.00000000
29
Lattice="6.508500099 0.0 0.0 -3.25425005 5.636526426 0.0 0.0 0.0 24.0" Properties=species:S:1:pos:R:3:forces:R:3 stress="-0.007859901234679157 1.1996180539947623e-05 -0.0 1.1996180539947623e-05 -0.007848959869181483 -0.0 -0.0 -0.0 0.0032092778868740308" free_energy=-262.14531315 energy=-262.14398963 pbc="T T T"
C        0.00000000       0.00000000      13.84860000      -0.07323000      -0.15671700       0.00438200
C       -0.46487000       2.41565000      13.85309000      -0.20358600      -0.03426200       0.05496500
C       -0.92980000       4.83129000      13.84896000      -0.10631200       0.12933600       0.00586700
C        1.85958000       1.61041000      13.85317000       0.13761100      -0.17090700       0.05384600
C        1.39467000       4.02611000      13.85310000       0.06722300       0.20528800       0.05509200
C        4.18405000       0.80523000      13.85108000      -0.00074600       0.00631500      -0.01134300
C        3.71912000       3.22088000      13.84902000       0.16209700       0.01446000       0.00458000
C       -2.32448000       4.56294000      13.85140000       0.01249800       0.01470400      -0.01785700
C        0.46490000       1.34206000      13.85348000      -0.08782500      -0.19618200       0.04376400
C       -0.00003000       3.75770000      13.85343000      -0.13201500       0.16573600       0.02758500
C        2.78935000       0.53682000      13.84904000       0.07866800      -0.13950800       0.00214400
C        2.32448000       2.95247000      13.85319000       0.21827500       0.05146500       0.03750500
C        1.85954000       5.36812000      13.84934000       0.08311100       0.14441700       0.00216000
C        4.64892000       2.14723000      13.84904000      -0.15538500      -0.03429800       0.00203700
C        0.00000000       0.00000000      10.15140000      -0.07323000      -0.15671700      -0.00438200
C       -0.46487000       2.41565000      10.14691000      -0.20358600      -0.03426200      -0.05496500
C       -0.92980000       4.83129000      10.15104000      -0.10631200       0.12933600      -0.00586700
C        1.85958000       1.61041000      10.14683000       0.13761100      -0.17090700      -0.05384600
C        1.39467000       4.02611000      10.14690000       0.06722300       0.20528800      -0.05509200
C        4.18405000       0.80523000      10.14892000      -0.00074600       0.00631500       0.01134300
C        3.71912000       3.22088000      10.15098000       0.16209700       0.01446000      -0.00458000
C       -2.32448000       4.56294000      10.14860000       0.01249800       0.01470400       0.01785700
C        0.46490000       1.34206000      10.14652000      -0.08782500      -0.19618200      -0.04376400
C       -0.00003000       3.75770000      10.14657000      -0.13201500       0.16573600      -0.02758500
C        2.78935000       0.53682000      10.15096000       0.07866800      -0.13950800      -0.00214400
C        2.32448000       2.95247000      10.14681000       0.21827500       0.05146500      -0.03750500
C        1.85954000       5.36812000      10.15066000       0.08311100       0.14441700      -0.00216000
C        4.64892000       2.14723000      10.15096000      -0.15538500      -0.03429800      -0.00203700
Li       0.92978000       2.68406000      12.00000000      -0.00077100       0.00030800      -0.00000000
29
Lattice="6.508500099 0.0 0.0 -3.25425005 5.636526426 0.0 0.0 0.0 24.0" Properties=species:S:1:pos:R:3:forces:R:3 stress="-0.00788097256948814 1.2982338981837175e-05 -0.0 1.2982338981837175e-05 -0.007852136797326558 -0.0 -0.0 -0.0 0.0032735529478523776" free_energy=-262.14684533 energy=-262.14556041 pbc="T T T"
C        0.00000000       0.00000000      13.84887000      -0.07285900      -0.15669300       0.00458100
C       -0.46487000       2.41565000      13.85657000      -0.20177900      -0.03170100       0.03351500
C       -0.92980000       4.83129000      13.84933000      -0.10639000       0.12970400      -0.00203700
C        1.85958000       1.61041000      13.85658000       0.14128100      -0.17028900       0.03617300
C        1.39467000       4.02611000      13.85659000       0.06493100       0.20417100       0.03127400
C        4.18405000       0.80523000      13.85037000      -0.00038800       0.00638600      -0.00402300
C        3.71912000       3.22088000      13.84931000       0.16244800       0.01473600       0.00086100
C       -2.32448000       4.56294000      13.85027000       0.00984900       0.01472000       0.00060600
C        0.46490000       1.34206000      13.85625000      -0.08866200      -0.19609300       0.04494500
C       -0.00003000       3.75770000      13.85517000      -0.13136900       0.16538800       0.04509800
C        2.78935000       0.53682000      13.84918000       0.07855400      -0.13926200       0.01093300
C        2.32448000       2.95247000      13.85556000       0.21603500       0.04905800       0.03962100
C        1.85954000       5.36812000      13.84948000       0.08318500       0.14413700       0.01096100
C        4.64892000       2.14723000      13.84917000      -0.15467300      -0.03420200       0.01083800
C        0.00000000       0.00000000      10.15113000      -0.07285900      -0.15669300      -0.00458100
C       -0.46487000       2.41565000      10.14343000      -0.20177900      -0.03170100      -0.03351500
C       -0.92980000       4.83129000      10.15067000      -0.10639000       0.12970400       0.00203700
C        1.85958000       1.61041000      10.14342000       0.14128100      -0.17028900      -0.03617300
C        1.39467000       4.02611000      10.14341000       0.06493100       0.20417100      -0.03127400
C        4.18405000       0.80523000      10.14963000      -0.00038800       0.00638600       0.00402300
C        3.71912000       3.22088000      10.15069000       0.16244800       0.01473600      -0.00086100
C       -2.32448000       4.56294000      10.14973000       0.00984900       0.01472000      -0.00060600
C        0.46490000       1.34206000      10.14375000      -0.08866200      -0.19609300      -0.04494500
C       -0.00003000       3.75770000      10.14483000      -0.13136900       0.16538800      -0.04509800
C        2.78935000       0.53682000      10.15082000       0.07855400      -0.13926200      -0.01093300
C        2.32448000       2.95247000      10.14444000       0.21603500       0.04905800      -0.03962100
C        1.85954000       5.36812000      10.15052000       0.08318500       0.14413700      -0.01096100
C        4.64892000       2.14723000      10.15083000      -0.15467300      -0.03420200      -0.01083800
Li       0.92973000       2.68408000      12.00000000      -0.00032600      -0.00011800      -0.00000000
29
Lattice="6.508500099 0.0 0.0 -3.25425005 5.636526426 0.0 0.0 0.0 24.0" Properties=species:S:1:pos:R:3:forces:R:3 stress="-0.007881322093999188 1.4074603078866747e-05 -0.0 1.4074603078866747e-05 -0.00785363475951677 -0.0 -0.0 -0.0 0.0033749275390749733" free_energy=-262.14873115 energy=-262.14750889 pbc="T T T"
C        0.00000000       0.00000000      13.84937000      -0.07262800      -0.15637200       0.01814800
C       -0.46487000       2.41565000      13.86093000      -0.20140500      -0.03352500       0.02793900
C       -0.92980000       4.83129000      13.84936000      -0.10638600       0.12913900       0.01393400
C        1.85958000       1.61041000      13.86111000       0.13909800      -0.17053900       0.02819300
C        1.39467000       4.02611000      13.86078000       0.06619900       0.20391000       0.02410400
C        4.18405000       0.80523000      13.84969000      -0.00042300       0.00612800       0.01440900
C        3.71912000       3.22088000      13.84953000       0.16198600       0.01456000       0.01321800
C       -2.32448000       4.56294000      13.84974000       0.01018900       0.01557100       0.00645300
C        0.46490000       1.34206000      13.86114000      -0.08712900      -0.19240900       0.03094300
C       -0.00003000       3.75770000      13.85956000      -0.13089400       0.16464700       0.02951700
C        2.78935000       0.53682000      13.85009000       0.07827600      -0.13915300       0.01040500
C        2.32448000       2.95247000      13.85984000       0.21577800       0.04834900       0.03234900
C        1.85954000       5.36812000      13.85040000       0.08203300       0.14461100       0.00904700
C        4.64892000       2.14723000      13.85007000      -0.15443800      -0.03451400       0.01073600
C        0.00000000       0.00000000      10.15063000      -0.07262800      -0.15637200      -0.01814800
C       -0.46487000       2.41565000      10.13907000      -0.20140500      -0.03352500      -0.02793900
C       -0.92980000       4.83129000      10.15064000      -0.10638600       0.12913900      -0.01393400
C        1.85958000       1.61041000      10.13889000       0.13909800      -0.17053900      -0.02819300
C        1.39467000       4.02611000      10.13922000       0.06619900       0.20391000      -0.02410400
C        4.18405000       0.80523000      10.15031000      -0.00042300       0.00612800      -0.01440900
C        3.71912000       3.22088000      10.15047000       0.16198600       0.01456000      -0.01321800
C       -2.32448000       4.56294000      10.15026000       0.01018900       0.01557100      -0.00645300
C        0.46490000       1.34206000      10.13886000      -0.08712900      -0.19240900      -0.03094300
C       -0.00003000       3.75770000      10.14044000      -0.13089400       0.16464700      -0.02951700
C        2.78935000       0.53682000      10.14991000       0.07827600      -0.13915300      -0.01040500
C        2.32448000       2.95247000      10.14016000       0.21577800       0.04834900      -0.03234900
C        1.85954000       5.36812000      10.14960000       0.08203300       0.14461100      -0.00904700
C        4.64892000       2.14723000      10.14993000      -0.15443800      -0.03451400      -0.01073600
Li       0.92968000       2.68408000      12.00000000      -0.00051100      -0.00080700      -0.00000000
29
Lattice="6.508500099 0.0 0.0 -3.25425005 5.636526426 0.0 0.0 0.0 24.0" Properties=species:S:1:pos:R:3:forces:R:3 stress="-0.007882252078858946 2.8823289143328883e-05 -0.0 2.8823289143328883e-05 -0.007846119982529208 -0.0 -0.0 -0.0 0.003431806411739147" free_energy=-262.15000524 energy=-262.14883728 pbc="T T T"
C        0.00000000       0.00000000      13.85057000      -0.07279900      -0.15528700       0.02024400
C       -0.46487000       2.41565000      13.86459000      -0.20046200      -0.03257500       0.02112900
C       -0.92980000       4.83129000      13.85021000      -0.10671300       0.12939100       0.01742600
C        1.85958000       1.61041000      13.86482000       0.13916600      -0.17038200       0.02150100
C        1.39467000       4.02611000      13.86418000       0.06491200       0.20465300       0.01860500
C        4.18405000       0.80523000      13.85011000      -0.00082400       0.00673500       0.01820300
C        3.71912000       3.22088000      13.85038000       0.16100600       0.01519700       0.01810300
C       -2.32448000       4.56294000      13.84968000       0.00977500       0.01617700       0.01730500
C        0.46490000       1.34206000      13.86497000      -0.08511700      -0.19558000       0.01490700
C       -0.00003000       3.75770000      13.86293000      -0.13098200       0.16487400       0.02772300
C        2.78935000       0.53682000      13.85098000       0.07985200      -0.14138500       0.00798700
C        2.32448000       2.95247000      13.86346000       0.21547500       0.04655300       0.02435200
C        1.85954000       5.36812000      13.85121000       0.07991000       0.14230000       0.01609300
C        4.64892000       2.14723000      13.85097000      -0.15275600      -0.03038800       0.00823600
C        0.00000000       0.00000000      10.14943000      -0.07279900      -0.15528700      -0.02024400
C       -0.46487000       2.41565000      10.13541000      -0.20046200      -0.03257500      -0.02112900
C       -0.92980000       4.83129000      10.14979000      -0.10671300       0.12939100      -0.01742600
C        1.85958000       1.61041000      10.13518000       0.13916600      -0.17038200      -0.02150100
C        1.39467000       4.02611000      10.13582000       0.06491200       0.20465300      -0.01860500
C        4.18405000       0.80523000      10.14989000      -0.00082400       0.00673500      -0.01820300
C        3.71912000       3.22088000      10.14962000       0.16100600       0.01519700      -0.01810300
C       -2.32448000       4.56294000      10.15032000       0.00977500       0.01617700      -0.01730500
C        0.46490000       1.34206000      10.13503000      -0.08511700      -0.19558000      -0.01490700
C       -0.00003000       3.75770000      10.13707000      -0.13098200       0.16487400      -0.02772300
C        2.78935000       0.53682000      10.14902000       0.07985200      -0.14138500      -0.00798700
C        2.32448000       2.95247000      10.13654000       0.21547500       0.04655300      -0.02435200
C        1.85954000       5.36812000      10.14879000       0.07991000       0.14230000      -0.01609300
C        4.64892000       2.14723000      10.14903000      -0.15275600      -0.03038800      -0.00823600
Li       0.92962000       2.68404000      12.00000000      -0.00089000      -0.00056700      -0.00000000
29
Lattice="6.508500099 0.0 0.0 -3.25425005 5.636526426 0.0 0.0 0.0 24.0" Properties=species:S:1:pos:R:3:forces:R:3 stress="-0.00786352130997217 2.350552336807635e-05 -0.0 2.350552336807635e-05 -0.007847337076808755 -0.0 -0.0 -0.0 0.003490732499396611" free_energy=-262.15091123 energy=-262.1497881 pbc="T T T"
C        0.00000000       0.00000000      13.85240000      -0.07272200      -0.15528800       0.01757700
C       -0.46487000       2.41565000      13.86709000      -0.20126000      -0.03240500       0.01224100
C       -0.92980000       4.83129000      13.85178000      -0.10637300       0.12906300       0.02002100
C        1.85958000       1.61041000      13.86736000       0.13845700      -0.16896400       0.00962000
C        1.39467000       4.02611000      13.86647000       0.06567200       0.20319500       0.02142600
C        4.18405000       0.80523000      13.85156000      -0.00077900       0.00688500       0.01120900
C        3.71912000       3.22088000      13.85203000       0.16082700       0.01531400       0.01902700
C       -2.32448000       4.56294000      13.85112000       0.01241500       0.01526300       0.01884200
C        0.46490000       1.34206000      13.86680000      -0.08400400      -0.19275300       0.02127600
C       -0.00003000       3.75770000      13.86587000      -0.13067700       0.16453500       0.02155600
C        2.78935000       0.53682000      13.85173000       0.08007800      -0.14101300       0.01948000
C        2.32448000       2.95247000      13.86610000       0.21254600       0.04446200       0.01021700
C        1.85954000       5.36812000      13.85277000       0.07833400       0.14161400       0.01829900
C        4.64892000       2.14723000      13.85174000      -0.15216300      -0.02994300       0.02004600
C        0.00000000       0.00000000      10.14760000      -0.07272200      -0.15528800      -0.01757700
C       -0.46487000       2.41565000      10.13291000      -0.20126000      -0.03240500      -0.01224100
C       -0.92980000       4.83129000      10.14822000      -0.10637300       0.12906300      -0.02002100
C        1.85958000       1.61041000      10.13264000       0.13845700      -0.16896400      -0.00962000
C        1.39467000       4.02611000      10.13353000       0.06567200       0.20319500      -0.02142600
C        4.18405000       0.80523000      10.14844000      -0.00077900       0.00688500      -0.01120900
C        3.71912000       3.22088000      10.14797000       0.16082700       0.01531400      -0.01902700
C       -2.32448000       4.56294000      10.14888000       0.01241500       0.01526300      -0.01884200
C        0.46490000       1.34206000      10.13320000      -0.08400400      -0.19275300      -0.02127600
C       -0.00003000       3.75770000      10.13413000      -0.13067700       0.16453500      -0.02155600
C        2.78935000       0.53682000      10.14827000       0.08007800      -0.14101300      -0.01948000
C        2.32448000       2.95247000      10.13390000       0.21254600       0.04446200      -0.01021700
C        1.85954000       5.36812000      10.14723000       0.07833400       0.14161400      -0.01829900
C        4.64892000       2.14723000      10.14826000      -0.15216300      -0.02994300      -0.02004600
Li       0.92953000       2.68399000      12.00000000      -0.00070100       0.00007500       0.00000000
29
Lattice="6.508500099 0.0 0.0 -3.25425005 5.636526426 0.0 0.0 0.0 24.0" Properties=species:S:1:pos:R:3:forces:R:3 stress="-0.007822982708199557 2.913536459962305e-05 -0.0 2.913536459962305e-05 -0.007835871424544507 -0.0 -0.0 -0.0 0.003560237945022447" free_energy=-262.15153037 energy=-262.15043763 pbc="T T T"
C        0.00000000       0.00000000      13.85380000      -0.07286300      -0.15569900       0.01843200
C       -0.46487000       2.41565000      13.86841000      -0.19862200      -0.03338000       0.01004300
C       -0.92980000       4.83129000      13.85323000      -0.10671700       0.13003900       0.01827800
C        1.85958000       1.61041000      13.86858000       0.13729600      -0.17199000       0.00461200
C        1.39467000       4.02611000      13.86810000       0.06465500       0.20499300       0.01696600
C        4.18405000       0.80523000      13.85259000      -0.00084400       0.00497700       0.00930700
C        3.71912000       3.22088000      13.85347000       0.16183200       0.01588700       0.01386200
C       -2.32448000       4.56294000      13.85249000       0.01358000       0.01371800       0.01917400
C        0.46490000       1.34206000      13.86809000      -0.08398000      -0.19282700       0.02319400
C       -0.00003000       3.75770000      13.86768000      -0.13060800       0.16383200       0.00655800
C        2.78935000       0.53682000      13.85274000       0.08318800      -0.13936300       0.02206200
C        2.32448000       2.95247000      13.86731000       0.21198400       0.04339900       0.01287500
C        1.85954000       5.36812000      13.85412000       0.07731200       0.14477200       0.01733600
C        4.64892000       2.14723000      13.85279000      -0.15566400      -0.02843200       0.02242900
C        0.00000000       0.00000000      10.14620000      -0.07286300      -0.15569900      -0.01843200
C       -0.46487000       2.41565000      10.13159000      -0.19862200      -0.03338000      -0.01004300
C       -0.92980000       4.83129000      10.14677000      -0.10671700       0.13003900      -0.01827800
C        1.85958000       1.61041000      10.13142000       0.13729600      -0.17199000      -0.00461200
C        1.39467000       4.02611000      10.13190000       0.06465500       0.20499300      -0.01696600
C        4.18405000       0.80523000      10.14741000      -0.00084400       0.00497700      -0.00930700
C        3.71912000       3.22088000      10.14653000       0.16183200       0.01588700      -0.01386200
C       -2.32448000       4.56294000      10.14751000       0.01358000       0.01371800      -0.01917400
C        0.46490000       1.34206000      10.13191000      -0.08398000      -0.19282700      -0.02319400
C       -0.00003000       3.75770000      10.13232000      -0.13060800       0.16383200      -0.00655800
C        2.78935000       0.53682000      10.14726000       0.08318800      -0.13936300      -0.02206200
C        2.32448000       2.95247000      10.13269000       0.21198400       0.04339900      -0.01287500
C        1.85954000       5.36812000      10.14588000       0.07731200       0.14477200      -0.01733600
C        4.64892000       2.14723000      10.14721000      -0.15566400      -0.02843200      -0.02242900
Li       0.92947000       2.68398000      12.00000000      -0.00109900       0.00014700       0.00000000
29
Lattice="6.508500099 0.0 0.0 -3.25425005 5.636526426 0.0 0.0 0.0 24.0" Properties=species:S:1:pos:R:3:forces:R:3 stress="-0.007852361491655092 2.5259387432449546e-05 -0.0 2.5259387432449546e-05 -0.007851824721870265 -0.0 -0.0 -0.0 0.0036603330268742368" free_energy=-262.15240353 energy=-262.15135526 pbc="T T T"
C        0.00000000       0.00000000      13.85657000      -0.07207100      -0.15576500       0.00129800
C       -0.46487000       2.41565000      13.87020000      -0.19990500      -0.02977800       0.00461900
C       -0.92980000       4.83129000      13.85583000      -0.10551000       0.13107600       0.01390700
C        1.85958000       1.61041000      13.86986000       0.13725700      -0.16977700       0.01248000
C        1.39467000       4.02611000      13.87021000       0.06360200       0.20003500       0.01197800
C        4.18405000       0.80523000      13.85450000      -0.00049700       0.00443600       0.01335100
C        3.71912000       3.22088000      13.85568000       0.16305100       0.01593700       0.01917200
C       -2.32448000       4.56294000      13.85538000       0.01139400       0.01369600       0.01610100
C        0.46490000       1.34206000      13.86999000      -0.08156400      -0.19101400       0.02323300
C       -0.00003000       3.75770000      13.86908000      -0.12935700       0.16337000       0.01730300
C        2.78935000       0.53682000      13.85476000       0.08677100      -0.13788800       0.01813600
C        2.32448000       2.95247000      13.86949000       0.20582000       0.03694500       0.00269700
C        1.85954000       5.36812000      13.85661000       0.07808500       0.14407200       0.01459100
C        4.64892000       2.14723000      13.85484000      -0.15708700      -0.02554700       0.01663200
C        0.00000000       0.00000000      10.14343000      -0.07207100      -0.15576500      -0.00129800
C       -0.46487000       2.41565000      10.12980000      -0.19990500      -0.02977800      -0.00461900
C       -0.92980000       4.83129000      10.14417000      -0.10551000       0.13107600      -0.01390700
C        1.85958000       1.61041000      10.13014000       0.13725700      -0.16977700      -0.01248000
C        1.39467000       4.02611000      10.12979000       0.06360200       0.20003500      -0.01197800
C        4.18405000       0.80523000      10.14550000      -0.00049700       0.00443600      -0.01335100
C        3.71912000       3.22088000      10.14432000       0.16305100       0.01593700      -0.01917200
C       -2.32448000       4.56294000      10.14462000       0.01139400       0.01369600      -0.01610100
C        0.46490000       1.34206000      10.13001000      -0.08156400      -0.19101400      -0.02323300
C       -0.00003000       3.75770000      10.13092000      -0.12935700       0.16337000      -0.01730300
C        2.78935000       0.53682000      10.14524000       0.08677100      -0.13788800      -0.01813600
C        2.32448000       2.95247000      10.13051000       0.20582000       0.03694500      -0.00269700
C        1.85954000       5.36812000      10.14339000       0.07808500       0.14407200      -0.01459100
C        4.64892000       2.14723000      10.14516000      -0.15708700      -0.02554700      -0.01663200
Li       0.92930000       2.68397000      12.00000000       0.00002000       0.00040200       0.00000000
29
Lattice="6.508500099 0.0 0.0 -3.25425005 5.636526426 0.0 0.0 0.0 24.0" Properties=species:S:1:pos:R:3:forces:R:3 stress="-0.007795413962390532 2.33744516764328e-05 -0.0 2.33744516764328e-05 -0.0078294551531631 -0.0 -0.0 -0.0 0.0038151911097965264" free_energy=-262.1541229 energy=-262.15316189 pbc="T T T"
C        0.00000000       0.00000000      13.86090000      -0.07160800      -0.15494800       0.00798400
C       -0.46487000       2.41565000      13.87373000      -0.20190200      -0.03454000       0.00868100
C       -0.92980000       4.83129000      13.86077000      -0.10554700       0.13016600       0.00968000
C        1.85958000       1.61041000      13.87334000       0.13672700      -0.16515900       0.01734500
C        1.39467000       4.02611000      13.87447000       0.07099200       0.19887700       0.00829600
C        4.18405000       0.80523000      13.85857000      -0.00191500       0.00899900       0.01903800
C        3.71912000       3.22088000      13.86054000       0.16057600       0.01466100       0.01486700
C       -2.32448000       4.56294000      13.86077000       0.01384200       0.01087300       0.01247900
C        0.46490000       1.34206000      13.87440000      -0.08531500      -0.19065000       0.00807300
C       -0.00003000       3.75770000      13.87292000      -0.12821500       0.16304300       0.02752900
C        2.78935000       0.53682000      13.85871000       0.08932800      -0.13614900       0.02294600
C        2.32448000       2.95247000      13.87340000       0.20661500       0.03543900       0.00408400
C        1.85954000       5.36812000      13.86139000       0.07577600       0.14391100       0.01438600
C        4.64892000       2.14723000      13.85872000      -0.15958400      -0.02508000       0.02295700
C        0.00000000       0.00000000      10.13910000      -0.07160800      -0.15494800      -0.00798400
C       -0.46487000       2.41565000      10.12627000      -0.20190200      -0.03454000      -0.00868100
C       -0.92980000       4.83129000      10.13923000      -0.10554700       0.13016600      -0.00968000
C        1.85958000       1.61041000      10.12666000       0.13672700      -0.16515900      -0.01734500
C        1.39467000       4.02611000      10.12553000       0.07099200       0.19887700      -0.00829600
C        4.18405000       0.80523000      10.14143000      -0.00191500       0.00899900      -0.01903800
C        3.71912000       3.22088000      10.13946000       0.16057600       0.01466100      -0.01486700
C       -2.32448000       4.56294000      10.13923000       0.01384200       0.01087300      -0.01247900
C        0.46490000       1.34206000      10.12560000      -0.08531500      -0.19065000      -0.00807300
C       -0.00003000       3.75770000      10.12708000      -0.12821500       0.16304300      -0.02752900
C        2.78935000       0.53682000      10.14129000       0.08932800      -0.13614900      -0.02294600
C        2.32448000       2.95247000      10.12660000       0.20661500       0.03543900      -0.00408400