29
Lattice="6.508500099 0.0 0.0 -3.25425005 5.636526426 0.0 0.0 0.0 24.0" Properties=species:S:1:pos:R:3:forces:R:3 stress="-0.0076770749493637845 1.6583689747471815e-05 -0.0 1.6583689747471815e-05 -0.007670521364781607 -0.0 -0.0 -0.0 -0.0008143796277269958" free_energy=-261.90371791 energy=-261.90181943 pbc="T T T"
C        0.00000000       0.00000000      13.70000000      -0.07844400      -0.15573700       0.01239000
C       -0.46487000       2.41565000      13.70000000      -0.26240600      -0.04226700       0.21289900
C       -0.92980000       4.83129000      13.70000000      -0.10487700       0.12269300       0.01139000
C        1.85958000       1.61041000      13.70000000       0.19304100      -0.23894700       0.21279500
C        1.39467000       4.02611000      13.70000000       0.08437700       0.27925100       0.21299000
C        4.18405000       0.80523000      13.70000000       0.00517800       0.01986200       0.05541800
C        3.71912000       3.22088000      13.70000000       0.14854000       0.00663900       0.01138000
C       -2.32448000       4.56294000      13.70000000       0.00740300       0.00920500       0.05544100
C        0.46490000       1.34206000      13.70000000      -0.10979000      -0.26551200       0.21293400
C       -0.00003000       3.75770000      13.70000000      -0.17686400       0.22078000       0.21390100
C        2.78935000       0.53682000      13.70000000       0.10227600      -0.14079000       0.01138100
C        2.32448000       2.95247000      13.70000000       0.28055500       0.04402700       0.21272900
C        1.85954000       5.36812000      13.70000000       0.08431000       0.14767000       0.01140300
C        4.64892000       2.14723000      13.70000000      -0.17286100      -0.00676900       0.01138600
C        0.00000000       0.00000000      10.30000000      -0.07844400      -0.15573700      -0.01239000
C       -0.46487000       2.41565000      10.30000000      -0.26240600      -0.04226700      -0.21289900
C       -0.92980000       4.83129000      10.30000000      -0.10487700       0.12269300      -0.01139000
C        1.85958000       1.61041000      10.30000000       0.19304100      -0.23894700      -0.21279500
C        1.39467000       4.02611000      10.30000000       0.08437700       0.27925100      -0.21299000
C        4.18405000       0.80523000      10.30000000       0.00517800       0.01986200      -0.05541800
C        3.71912000       3.22088000      10.30000000       0.14854000       0.00663900      -0.01138000
C       -2.32448000       4.56294000      10.30000000       0.00740300       0.00920500      -0.05544100
C        0.46490000       1.34206000      10.30000000      -0.10979000      -0.26551200      -0.21293400
C       -0.00003000       3.75770000      10.30000000      -0.17686400       0.22078000      -0.21390100
C        2.78935000       0.53682000      10.30000000       0.10227600      -0.14079000      -0.01138100
C        2.32448000       2.95247000      10.30000000       0.28055500       0.04402700      -0.21272900
C        1.85954000       5.36812000      10.30000000       0.08431000       0.14767000      -0.01140300
C        4.64892000       2.14723000      10.30000000      -0.17286100      -0.00676900      -0.01138600
Li       0.92980000       2.68406000      12.00000000      -0.00087500      -0.00021100      -0.00000000
29
Lattice="6.508500099 0.0 0.0 -3.25425005 5.636526426 0.0 0.0 0.0 24.0" Properties=species:S:1:pos:R:3:forces:R:3 stress="-0.007664566965075515 2.746264015388634e-07 -0.0 2.746264015388634e-07 -0.0076181051711424405 -0.0 -0.0 -0.0 -0.0005765469224852142" free_energy=-261.9280524 energy=-261.92600238 pbc="T T T"
C        0.00000000       0.00000000      13.70060000      -0.07763300      -0.15800000       0.05582600
C       -0.46487000       2.41565000      13.71027000      -0.26056700      -0.03621400       0.17111000
C       -0.92980000       4.83129000      13.70055000      -0.10544100       0.12286200       0.05566000
C        1.85958000       1.61041000      13.71027000       0.19492700      -0.22507700       0.17035100
C        1.39467000       4.02611000      13.71028000       0.08030400       0.26514600       0.17091900
C        4.18405000       0.80523000      13.70267000       0.00583600       0.01897900       0.01259200
C        3.71912000       3.22088000      13.70055000       0.15075300       0.00679100       0.05536300
C       -2.32448000       4.56294000      13.70267000       0.00650700       0.01848000       0.00305300
C        0.46490000       1.34206000      13.71027000      -0.11279900      -0.26862500       0.16746300
C       -0.00003000       3.75770000      13.71032000      -0.17211500       0.21514100       0.17645000
C        2.78935000       0.53682000      13.70055000       0.10418100      -0.14218700       0.05328400
C        2.32448000       2.95247000      13.71026000       0.27401500       0.04304400       0.17793000
C        1.85954000       5.36812000      13.70055000       0.08538300       0.14847100       0.05366500
C        4.64892000       2.14723000      13.70055000      -0.17334800      -0.00844900       0.05327700
C        0.00000000       0.00000000      10.29940000      -0.07763300      -0.15800000      -0.05582600
C       -0.46487000       2.41565000      10.28973000      -0.26056700      -0.03621400      -0.17111000
C       -0.92980000       4.83129000      10.29945000      -0.10544100       0.12286200      -0.05566000
C        1.85958000       1.61041000      10.28973000       0.19492700      -0.22507700      -0.17035100
C        1.39467000       4.02611000      10.28972000       0.08030400       0.26514600      -0.17091900
C        4.18405000       0.80523000      10.29733000       0.00583600       0.01897900      -0.01259200
C        3.71912000       3.22088000      10.29945000       0.15075300       0.00679100      -0.05536300
C       -2.32448000       4.56294000      10.29733000       0.00650700       0.01848000      -0.00305300
C        0.46490000       1.34206000      10.28973000      -0.11279900      -0.26862500      -0.16746300
C       -0.00003000       3.75770000      10.28968000      -0.17211500       0.21514100      -0.17645000
C        2.78935000       0.53682000      10.29945000       0.10418100      -0.14218700      -0.05328400
C        2.32448000       2.95247000      10.28974000       0.27401500       0.04304400      -0.17793000
C        1.85954000       5.36812000      10.29945000       0.08538300       0.14847100      -0.05366500
C        4.64892000       2.14723000      10.29945000      -0.17334800      -0.00844900      -0.05327700
Li       0.92976000       2.68405000      12.00000000      -0.00000500      -0.00072500      -0.00000000
29
Lattice="6.508500099 0.0 0.0 -3.25425005 5.636526426 0.0 0.0 0.0 24.0" Properties=species:S:1:pos:R:3:forces:R:3 stress="-0.007714967151267023 9.955207055783798e-06 -0.0 9.955207055783798e-06 -0.007677287160674065 -0.0 -0.0 -0.0 -0.0001939736206141999" free_energy=-261.9629761 energy=-261.96076366 pbc="T T T"
C        0.00000000       0.00000000      13.70630000      -0.07696400      -0.15749400       0.06992200
C       -0.46487000       2.41565000      13.72774000      -0.26075900      -0.04162300       0.11260500
C       -0.92980000       4.83129000      13.70623000      -0.10313400       0.11597700       0.06312800
C        1.85958000       1.61041000      13.72765000       0.17713000      -0.21478600       0.11261400
C        1.39467000       4.02611000      13.72772000       0.08648600       0.25543800       0.11880200
C        4.18405000       0.80523000      13.70396000       0.00408300       0.02098000       0.05559500
C        3.71912000       3.22088000      13.70620000       0.14613300       0.00199600       0.06547000
C       -2.32448000       4.56294000      13.70299000       0.00645600       0.01859000       0.06634200
C        0.46490000       1.34206000      13.72737000      -0.10394700      -0.25148700       0.12033300
C       -0.00003000       3.75770000      13.72833000      -0.16766700       0.20939400       0.11489600
C        2.78935000       0.53682000      13.70599000       0.10575900      -0.14085200       0.07375500
C        2.32448000       2.95247000      13.72842000       0.26692400       0.04537400       0.12129400
C        1.85954000       5.36812000      13.70603000       0.09267400       0.14583600       0.06262900
C        4.64892000       2.14723000      13.70599000      -0.17341300      -0.00763500       0.07408200
C        0.00000000       0.00000000      10.29370000      -0.07696400      -0.15749400      -0.06992200
C       -0.46487000       2.41565000      10.27226000      -0.26075900      -0.04162300      -0.11260500
C       -0.92980000       4.83129000      10.29377000      -0.10313400       0.11597700      -0.06312800
C        1.85958000       1.61041000      10.27235000       0.17713000      -0.21478600      -0.11261400
C        1.39467000       4.02611000      10.27228000       0.08648600       0.25543800      -0.11880200
C        4.18405000       0.80523000      10.29604000       0.00408300       0.02098000      -0.05559500
C        3.71912000       3.22088000      10.29380000       0.14613300       0.00199600      -0.06547000
C       -2.32448000       4.56294000      10.29701000       0.00645600       0.01859000      -0.06634200
C        0.46490000       1.34206000      10.27263000      -0.10394700      -0.25148700      -0.12033300
C       -0.00003000       3.75770000      10.27167000      -0.16766700       0.20939400      -0.11489600
C        2.78935000       0.53682000      10.29401000       0.10575900      -0.14085200      -0.07375500
C        2.32448000       2.95247000      10.27158000       0.26692400       0.04537400      -0.12129400
C        1.85954000       5.36812000      10.29397000       0.09267400       0.14583600      -0.06262900
C        4.64892000       2.14723000      10.29401000      -0.17341300      -0.00763500      -0.07408200
Li       0.92976000       2.68397000      12.00000000       0.00047900       0.00058500      -0.00000000
29
Lattice="6.508500099 0.0 0.0 -3.25425005 5.636526426 0.0 0.0 0.0 24.0" Properties=species:S:1:pos:R:3:forces:R:3 stress="-0.007624284265177065 1.2414361651381802e-05 -0.0 1.2414361651381802e-05 -0.007594281330808944 -0.0 -0.0 -0.0 0.0002960597438771465" free_energy=-261.9966548 energy=-261.99444217 pbc="T T T"
C        0.00000000       0.00000000      13.71618000      -0.07587200      -0.15621800       0.08523800
C       -0.46487000       2.41565000      13.74858000      -0.25372700      -0.04533200       0.07219200
C       -0.92980000       4.83129000      13.71547000      -0.09800000       0.12085800       0.08022900
C        1.85958000       1.61041000      13.74845000       0.17228300      -0.21422600       0.07804800
C        1.39467000       4.02611000      13.74913000       0.08337700       0.25183100       0.06951200
C        4.18405000       0.80523000      13.70988000      -0.00663500       0.01599900       0.09298800
C        3.71912000       3.22088000      13.71564000       0.15302200      -0.00178000       0.08362600
C       -2.32448000       4.56294000      13.70933000       0.00250700       0.01646100       0.09282600
C        0.46490000       1.34206000      13.74871000      -0.11038300      -0.24871500       0.05983100
C       -0.00003000       3.75770000      13.74971000      -0.16602400       0.20305700       0.04355100
C        2.78935000       0.53682000      13.71607000       0.10285300      -0.14768200       0.07522000
C        2.32448000       2.95247000      13.75049000       0.27301800       0.06443500       0.04096800
C        1.85954000       5.36812000      13.71510000       0.08761400       0.14818800       0.09276500
C        4.64892000       2.14723000      13.71610000      -0.16405000      -0.00647700       0.07600900
C        0.00000000       0.00000000      10.28382000      -0.07587200      -0.15621800      -0.08523800
C       -0.46487000       2.41565000      10.25142000      -0.25372700      -0.04533200      -0.07219200
C       -0.92980000       4.83129000      10.28453000      -0.09800000       0.12085800      -0.08022900
C        1.85958000       1.61041000      10.25155000       0.17228300      -0.21422600      -0.07804800
C        1.39467000       4.02611000      10.25087000       0.08337700       0.25183100      -0.06951200
C        4.18405000       0.80523000      10.29012000      -0.00663500       0.01599900      -0.09298800
C        3.71912000       3.22088000      10.28436000       0.15302200      -0.00178000      -0.08362600
C       -2.32448000       4.56294000      10.29067000       0.00250700       0.01646100      -0.09282600
C        0.46490000       1.34206000      10.25129000      -0.11038300      -0.24871500      -0.05983100
C       -0.00003000       3.75770000      10.25029000      -0.16602400       0.20305700      -0.04355100
C        2.78935000       0.53682000      10.28393000       0.10285300      -0.14768200      -0.07522000
C        2.32448000       2.95247000      10.24951000       0.27301800       0.06443500      -0.04096800
C        1.85954000       5.36812000      10.28490000       0.08761400       0.14818800      -0.09276500
C        4.64892000       2.14723000      10.28390000      -0.16405000      -0.00647700      -0.07600900
Li       0.92981000       2.68398000      12.00000000       0.00003300      -0.00079700      -0.00000000
29
Lattice="6.508500099 0.0 0.0 -3.25425005 5.636526426 0.0 0.0 0.0 24.0" Properties=species:S:1:pos:R:3:forces:R:3 stress="-0.007579932101328538 7.439878878052844e-06 -0.0 7.439878878052844e-06 -0.007569315294305411 -0.0 -0.0 -0.0 0.0005728332245553137" free_energy=-262.01102632 energy=-262.00886141 pbc="T T T"
C        0.00000000       0.00000000      13.72285000      -0.07456000      -0.15593600       0.09865000
C       -0.46487000       2.41565000      13.75663000      -0.24869300      -0.03809100       0.05620800
C       -0.92980000       4.83129000      13.72177000      -0.10154900       0.12640100       0.07520400
C        1.85958000       1.61041000      13.75684000       0.18013600      -0.20955300       0.05494800
C        1.39467000       4.02611000      13.75708000       0.07646200       0.24088500       0.04839200
C        4.18405000       0.80523000      13.71624000      -0.00730800       0.01158100       0.08092800
C        3.71912000       3.22088000      13.72217000       0.15614600       0.00754500       0.07378700
C       -2.32448000       4.56294000      13.71565000      -0.00325500       0.01025800       0.09945500
C        0.46490000       1.34206000      13.75604000      -0.10747600      -0.24834700       0.06470100
C       -0.00003000       3.75770000      13.75615000      -0.16339100       0.20047300       0.06464900
C        2.78935000       0.53682000      13.72215000       0.10417500      -0.14348200       0.09090100
C        2.32448000       2.95247000      13.75686000       0.27038400       0.06411500       0.06058000
C        1.85954000       5.36812000      13.72212000       0.08509800       0.14352100       0.08638200
C        4.64892000       2.14723000      13.72223000      -0.16641200      -0.00840600       0.08932100
C        0.00000000       0.00000000      10.27715000      -0.07456000      -0.15593600      -0.09865000
C       -0.46487000       2.41565000      10.24337000      -0.24869300      -0.03809100      -0.05620800
C       -0.92980000       4.83129000      10.27823000      -0.10154900       0.12640100      -0.07520400
C        1.85958000       1.61041000      10.24316000       0.18013600      -0.20955300      -0.05494800
C        1.39467000       4.02611000      10.24292000       0.07646200       0.24088500      -0.04839200
C        4.18405000       0.80523000      10.28376000      -0.00730800       0.01158100      -0.08092800
C        3.71912000       3.22088000      10.27783000       0.15614600       0.00754500      -0.07378700
C       -2.32448000       4.56294000      10.28435000      -0.00325500       0.01025800      -0.09945500
C        0.46490000       1.34206000      10.24396000      -0.10747600      -0.24834700      -0.06470100
C       -0.00003000       3.75770000      10.24385000      -0.16339100       0.20047300      -0.06464900
C        2.78935000       0.53682000      10.27785000       0.10417500      -0.14348200      -0.09090100
C        2.32448000       2.95247000      10.24314000       0.27038400       0.06411500      -0.06058000
C        1.85954000       5.36812000      10.27788000       0.08509800       0.14352100      -0.08638200
C        4.64892000       2.14723000      10.27777000      -0.16641200      -0.00840600      -0.08932100
Li       0.92981000       2.68393000      12.00000000       0.00048500      -0.00192600       0.00000000
29
Lattice="6.508500099 0.0 0.0 -3.25425005 5.636526426 0.0 0.0 0.0 24.0" Properties=species:S:1:pos:R:3:forces:R:3 stress="-0.00760806882446802 2.3948670516014062e-05 -0.0 2.3948670516014062e-05 -0.007619927691807198 -0.0 -0.0 -0.0 0.0007303002582922224" free_energy=-262.01977225 energy=-262.01763753 pbc="T T T"
C        0.00000000       0.00000000      13.72747000      -0.07471000      -0.15632500       0.09114500
C       -0.46487000       2.41565000      13.76149000      -0.25503800      -0.03205500       0.04236800
C       -0.92980000       4.83129000      13.72564000      -0.10181000       0.12944900       0.07718200
C        1.85958000       1.61041000      13.76171000       0.18091800      -0.20188300       0.04310300
C        1.39467000       4.02611000      13.76174000       0.07381500       0.23561900       0.04240100
C        4.18405000       0.80523000      13.71986000      -0.00396200       0.00688200       0.09388100
C        3.71912000       3.22088000      13.72603000       0.16026700       0.00910800       0.07453200
C       -2.32448000       4.56294000      13.71977000       0.00390500       0.01010100       0.09635400
C        0.46490000       1.34206000      13.76106000      -0.09958600      -0.24517500       0.05632900
C       -0.00003000       3.75770000      13.76108000      -0.16297700       0.19858600       0.05105600
C        2.78935000       0.53682000      13.72647000       0.09865500      -0.13831200       0.08667400
C        2.32448000       2.95247000      13.76172000       0.26833700       0.06233400       0.05386400
C        1.85954000       5.36812000      13.72638000       0.07928000       0.13684300       0.08221100
C        4.64892000       2.14723000      13.72652000      -0.16699300      -0.01385800       0.08696700
C        0.00000000       0.00000000      10.27253000      -0.07471000      -0.15632500      -0.09114500
C       -0.46487000       2.41565000      10.23851000      -0.25503800      -0.03205500      -0.04236800
C       -0.92980000       4.83129000      10.27436000      -0.10181000       0.12944900      -0.07718200
C        1.85958000       1.61041000      10.23829000       0.18091800      -0.20188300      -0.04310300
C        1.39467000       4.02611000      10.23826000       0.07381500       0.23561900      -0.04240100
C        4.18405000       0.80523000      10.28014000      -0.00396200       0.00688200      -0.09388100
C        3.71912000       3.22088000      10.27397000       0.16026700       0.00910800      -0.07453200
C       -2.32448000       4.56294000      10.28023000       0.00390500       0.01010100      -0.09635400
C        0.46490000       1.34206000      10.23894000      -0.09958600      -0.24517500      -0.05632900
C       -0.00003000       3.75770000      10.23892000      -0.16297700       0.19858600      -0.05105600
C        2.78935000       0.53682000      10.27353000       0.09865500      -0.13831200      -0.08667400
C        2.32448000       2.95247000      10.23828000       0.26833700       0.06233400      -0.05386400
C        1.85954000       5.36812000      10.27362000       0.07928000       0.13684300      -0.08221100
C        4.64892000       2.14723000      10.27348000      -0.16699300      -0.01385800      -0.08696700
Li       0.92983000       2.68387000      12.00000000      -0.00020100      -0.00262900       0.00000000
29
Lattice="6.508500099 0.0 0.0 -3.25425005 5.636526426 0.0 0.0 0.0 24.0" Properties=species:S:1:pos:R:3:forces:R:3 stress="-0.007726875950679208 2.9397507982910145e-06 -0.0 2.9397507982910145e-06 -0.007789415872120558 -0.0 -0.0 -0.0 0.0010377694808514834" free_energy=-262.05156713 energy=-262.04945935 pbc="T T T"
C        0.00000000       0.00000000      13.74693000      -0.07440700      -0.15513800       0.04973300
C       -0.46487000       2.41565000      13.77836000      -0.24709800      -0.02844800       0.04895000
C       -0.92980000       4.83129000      13.74336000      -0.10108200       0.12402800       0.08265200
C        1.85958000       1.61041000      13.77898000       0.17561500      -0.19333700       0.05053500
C        1.39467000       4.02611000      13.77927000       0.06830100       0.22755100       0.03482500
C        4.18405000       0.80523000      13.73939000      -0.00225900       0.00534200       0.07280300
C        3.71912000       3.22088000      13.74343000       0.15391700       0.00651300       0.09329000
C       -2.32448000       4.56294000      13.73846000       0.01169500       0.00813900       0.07073200
C        0.46490000       1.34206000      13.78010000      -0.08868700      -0.22937000       0.02666100
C       -0.00003000       3.75770000      13.77867000      -0.15860600       0.19364800       0.02511200
C        2.78935000       0.53682000      13.74521000       0.08226300      -0.14107500       0.07384500
C        2.32448000       2.95247000      13.78037000       0.25898500       0.07336600       0.01411700
C        1.85954000       5.36812000      13.74469000       0.07941900       0.13682000       0.08595000
C        4.64892000       2.14723000      13.74546000      -0.15745400      -0.02752200       0.06461900
C        0.00000000       0.00000000      10.25307000      -0.07440700      -0.15513800      -0.04973300
C       -0.46487000       2.41565000      10.22164000      -0.24709800      -0.02844800      -0.04895000
C       -0.92980000       4.83129000      10.25664000      -0.10108200       0.12402800      -0.08265200
C        1.85958000       1.61041000      10.22102000       0.17561500      -0.19333700      -0.05053500
C        1.39467000       4.02611000      10.22073000       0.06830100       0.22755100      -0.03482500
C        4.18405000       0.80523000      10.26061000      -0.00225900       0.00534200      -0.07280300
C        3.71912000       3.22088000      10.25657000       0.15391700       0.00651300      -0.09329000
C       -2.32448000       4.56294000      10.26154000       0.01169500       0.00813900      -0.07073200
C        0.46490000       1.34206000      10.21990000      -0.08868700      -0.22937000      -0.02666100
C       -0.00003000       3.75770000      10.22133000      -0.15860600       0.19364800      -0.02511200
C        2.78935000       0.53682000      10.25479000       0.08226300      -0.14107500      -0.07384500
C        2.32448000       2.95247000      10.21963000       0.25898500       0.07336600      -0.01411700
C        1.85954000       5.36812000      10.25531000       0.07941900       0.13682000      -0.08595000
C        4.64892000       2.14723000      10.25454000      -0.15745400      -0.02752200      -0.06461900
Li       0.92977000       2.68339000      12.00000000      -0.00120300      -0.00103200       0.00000000
29
Lattice="6.508500099 0.0 0.0 -3.25425005 5.636526426 0.0 0.0 0.0 24.0" Properties=species:S:1:pos:R:3:forces:R:3 stress="-0.007773862031378857 -5.86077706920438e-06 -0.0 -5.86077706920438e-06 -0.007783879653525899 -0.0 -0.0 -0.0 0.0015497916819933164" free_energy=-262.08163408 energy=-262.07939583 pbc="T T T"
C        0.00000000       0.00000000      13.76600000      -0.07212200      -0.15318500       0.04090600
C       -0.46487000       2.41565000      13.79715000      -0.24088500      -0.03389400       0.02278900
C       -0.92980000       4.83129000      13.76453000      -0.08832100       0.12613300       0.05734200
C        1.85958000       1.61041000      13.79825000       0.16035400      -0.19162900       0.01476200
C        1.39467000       4.02611000      13.79733000       0.07659500       0.22230600       0.01940100
C        4.18405000       0.80523000      13.76059000      -0.01354700       0.01134000       0.07718100
C        3.71912000       3.22088000      13.76541000       0.16195500      -0.00137200       0.04813800
C       -2.32448000       4.56294000      13.75855000       0.01090900       0.01024400       0.08366600
C        0.46490000       1.34206000      13.79820000      -0.08792200      -0.21768100       0.01618200
C       -0.00003000       3.75770000      13.79549000      -0.15060400       0.18824500       0.04243800
C        2.78935000       0.53682000      13.76608000       0.07360900      -0.13401300       0.06425200
C        2.32448000       2.95247000      13.79703000       0.24666700       0.06023700       0.03294100
C        1.85954000       5.36812000      13.76650000       0.07481200       0.14978100       0.04917400
C        4.64892000       2.14723000      13.76565000      -0.15155500      -0.03633600       0.06952900
C        0.00000000       0.00000000      10.23400000      -0.07212200      -0.15318500      -0.04090600
C       -0.46487000       2.41565000      10.20285000      -0.24088500      -0.03389400      -0.02278900
C       -0.92980000       4.83129000      10.23547000      -0.08832100       0.12613300      -0.05734200
C        1.85958000       1.61041000      10.20175000       0.16035400      -0.19162900      -0.01476200
C        1.39467000       4.02611000      10.20267000       0.07659500       0.22230600      -0.01940100
C        4.18405000       0.80523000      10.23941000      -0.01354700       0.01134000      -0.07718100
C        3.71912000       3.22088000      10.23459000       0.16195500      -0.00137200      -0.04813800
C       -2.32448000       4.56294000      10.24145000       0.01090900       0.01024400      -0.08366600
C        0.46490000       1.34206000      10.20180000      -0.08792200      -0.21768100      -0.01618200
C       -0.00003000       3.75770000      10.20451000      -0.15060400       0.18824500      -0.04243800
C        2.78935000       0.53682000      10.23392000       0.07360900      -0.13401300      -0.06425200
C        2.32448000       2.95247000      10.20297000       0.24666700       0.06023700      -0.03294100
C        1.85954000       5.36812000      10.23350000       0.07481200       0.14978100      -0.04917400
C        4.64892000       2.14723000      10.23435000      -0.15155500      -0.03633600      -0.06952900
Li       0.92960000       2.68297000      12.00000000       0.00011400      -0.00035300      -0.00000000
29
Lattice="6.508500099 0.0 0.0 -3.25425005 5.636526426 0.0 0.0 0.0 24.0" Properties=species:S:1:pos:R:3:forces:R:3 stress="-0.00783074090404303 1.9929138638945242e-05 -0.0 1.9929138638945242e-05 -0.007818089365044866 -0.0 -0.0 -0.0 0.001974532619518798" free_energy=-262.09959648 energy=-262.09730985 pbc="T T T"
C        0.00000000       0.00000000      13.78032000      -0.07184900      -0.15396800       0.05705000
C       -0.46487000       2.41565000      13.80985000      -0.23758200      -0.02407200       0.01625700
C       -0.92980000       4.83129000      13.78050000      -0.08566400       0.12599900       0.06818200
C        1.85958000       1.61041000      13.81059000       0.16313600      -0.17533000       0.01406500
C        1.39467000       4.02611000      13.80974000       0.06887600       0.20680900       0.01261100
C        4.18405000       0.80523000      13.77850000      -0.01481000       0.01135300       0.05702200
C        3.71912000       3.22088000      13.78085000       0.16413400      -0.00461400       0.06862200
C       -2.32448000       4.56294000      13.77630000       0.00818300      -0.00193100       0.04638300
C        0.46490000       1.34206000      13.81063000      -0.07908400      -0.21169600       0.00999000
C       -0.00003000       3.75770000      13.80922000      -0.14589100       0.18265700       0.01510000
C        2.78935000       0.53682000      13.78269000       0.07092200      -0.14427200       0.05080300
C        2.32448000       2.95247000      13.81025000       0.23983700       0.06765200       0.01297700
C        1.85954000       5.36812000      13.78214000       0.06381900       0.15654500       0.03860900
C        4.64892000       2.14723000      13.78252000      -0.14456900      -0.03614300       0.05055700
C        0.00000000       0.00000000      10.21968000      -0.07184900      -0.15396800      -0.05705000
C       -0.46487000       2.41565000      10.19015000      -0.23758200      -0.02407200      -0.01625700
C       -0.92980000       4.83129000      10.21950000      -0.08566400       0.12599900      -0.06818200
C        1.85958000       1.61041000      10.18941000       0.16313600      -0.17533000      -0.01406500
C        1.39467000       4.02611000      10.19026000       0.06887600       0.20680900      -0.01261100
C        4.18405000       0.80523000      10.22150000      -0.01481000       0.01135300      -0.05702200
C        3.71912000       3.22088000      10.21915000       0.16413400      -0.00461400      -0.06862200
C       -2.32448000       4.56294000      10.22370000       0.00818300      -0.00193100      -0.04638300
C        0.46490000       1.34206000      10.18937000      -0.07908400      -0.21169600      -0.00999000
C       -0.00003000       3.75770000      10.19078000      -0.14589100       0.18265700      -0.01510000
C        2.78935000       0.53682000      10.21731000       0.07092200      -0.14427200      -0.05080300
C        2.32448000       2.95247000      10.18975000       0.23983700       0.06765200      -0.01297700