29
Lattice="6.508500099 0.0 0.0 -3.25425005 5.636526426 0.0 0.0 0.0 24.0" Properties=species:S:1:pos:R:3:forces:R:3 stress="-0.007626543691480634 1.6683553893485947e-05 -0.0 1.6683553893485947e-05 -0.007619278574858107 -0.0 -0.0 -0.0 -0.011109811345962691" free_energy=-261.09741332 energy=-261.0968985 pbc="T T T"
C        0.00000000       0.00000000      13.55000000      -0.08349800      -0.15420200       0.15858900
C       -0.46487000       2.41565000      13.55000000      -0.38058200      -0.06338100       0.51387000
C       -0.92980000       4.83129000      13.55000000      -0.09782800       0.13686600       0.15072900
C        1.85958000       1.61041000      13.55000000       0.25400500      -0.30999900       0.51270700
C        1.39467000       4.02611000      13.55000000       0.12879000       0.37388900       0.51398800
C        4.18405000       0.80523000      13.55000000      -0.00115000       0.00563200       0.19441000
C        3.71912000       3.22088000      13.55000000       0.16535700       0.00331600       0.14946000
C       -2.32448000       4.56294000      13.55000000       0.00941300       0.01504500       0.18783300
C        0.46490000       1.34206000      13.55000000      -0.15327700      -0.36924200       0.50610900
C       -0.00003000       3.75770000      13.55000000      -0.24678900       0.30424900       0.50702700
C        2.78935000       0.53682000      13.55000000       0.07034700      -0.14703300       0.14908700
C        2.32448000       2.95247000      13.55000000       0.40020300       0.08870300       0.51243600
C        1.85954000       5.36812000      13.55000000       0.09358100       0.14158600       0.14288500
C        4.64892000       2.14723000      13.55000000      -0.15769700      -0.02492800       0.14908600
C        0.00000000       0.00000000      10.45000000      -0.08349800      -0.15420200      -0.15858900
C       -0.46487000       2.41565000      10.45000000      -0.38058200      -0.06338100      -0.51387000
C       -0.92980000       4.83129000      10.45000000      -0.09782800       0.13686600      -0.15072900
C        1.85958000       1.61041000      10.45000000       0.25400500      -0.30999900      -0.51270700
C        1.39467000       4.02611000      10.45000000       0.12879000       0.37388900      -0.51398800
C        4.18405000       0.80523000      10.45000000      -0.00115000       0.00563200      -0.19441000
C        3.71912000       3.22088000      10.45000000       0.16535700       0.00331600      -0.14946000
C       -2.32448000       4.56294000      10.45000000       0.00941300       0.01504500      -0.18783300
C        0.46490000       1.34206000      10.45000000      -0.15327700      -0.36924200      -0.50610900
C       -0.00003000       3.75770000      10.45000000      -0.24678900       0.30424900      -0.50702700
C        2.78935000       0.53682000      10.45000000       0.07034700      -0.14703300      -0.14908700
C        2.32448000       2.95247000      10.45000000       0.40020300       0.08870300      -0.51243600
C        1.85954000       5.36812000      10.45000000       0.09358100       0.14158600      -0.14288500
C        4.64892000       2.14723000      10.45000000      -0.15769700      -0.02492800      -0.14908600
Li       0.92980000       2.68406000      12.00000000      -0.00174800      -0.00099700       0.00000000
29
Lattice="6.508500099 0.0 0.0 -3.25425005 5.636526426 0.0 0.0 0.0 24.0" Properties=species:S:1:pos:R:3:forces:R:3 stress="-0.007632479366659349 -1.007379572917558e-05 -0.0 -1.007379572917558e-05 -0.007655704022116761 -0.0 -0.0 -0.0 -0.009632215200028464" free_energy=-261.25515851 energy=-261.25464828 pbc="T T T"
C        0.00000000       0.00000000      13.55765000      -0.08674700      -0.16109400       0.19405300
C       -0.46487000       2.41565000      13.57479000      -0.36290700      -0.04791200       0.39588800
C       -0.92980000       4.83129000      13.55727000      -0.08885000       0.14089000       0.20135400
C        1.85958000       1.61041000      13.57473000       0.24957800      -0.28458000       0.39835300
C        1.39467000       4.02611000      13.57480000       0.11037000       0.34015500       0.39602000
C        4.18405000       0.80523000      13.55938000      -0.01481000       0.00856200       0.12459500
C        3.71912000       3.22088000      13.55721000       0.17466100      -0.00968000       0.20319300
C       -2.32448000       4.56294000      13.55906000       0.00891400       0.00879500       0.12883000
C        0.46490000       1.34206000      13.57442000      -0.13092700      -0.34173900       0.40783700
C       -0.00003000       3.75770000      13.57446000      -0.23356200       0.28486700       0.40555500
C        2.78935000       0.53682000      13.55719000       0.07271500      -0.15212400       0.21065200
C        2.32448000       2.95247000      13.57472000       0.37363200       0.09601100       0.40458900
C        1.85954000       5.36812000      13.55689000       0.09395300       0.14612800       0.21029700
C        4.64892000       2.14723000      13.55719000      -0.16489600      -0.02745800       0.21056500
C        0.00000000       0.00000000      10.44235000      -0.08674700      -0.16109400      -0.19405300
C       -0.46487000       2.41565000      10.42521000      -0.36290700      -0.04791200      -0.39588800
C       -0.92980000       4.83129000      10.44273000      -0.08885000       0.14089000      -0.20135400
C        1.85958000       1.61041000      10.42527000       0.24957800      -0.28458000      -0.39835300
C        1.39467000       4.02611000      10.42520000       0.11037000       0.34015500      -0.39602000
C        4.18405000       0.80523000      10.44062000      -0.01481000       0.00856200      -0.12459500
C        3.71912000       3.22088000      10.44279000       0.17466100      -0.00968000      -0.20319300
C       -2.32448000       4.56294000      10.44094000       0.00891400       0.00879500      -0.12883000
C        0.46490000       1.34206000      10.42558000      -0.13092700      -0.34173900      -0.40783700
C       -0.00003000       3.75770000      10.42554000      -0.23356200       0.28486700      -0.40555500
C        2.78935000       0.53682000      10.44281000       0.07271500      -0.15212400      -0.21065200
C        2.32448000       2.95247000      10.42528000       0.37363200       0.09601100      -0.40458900
C        1.85954000       5.36812000      10.44311000       0.09395300       0.14612800      -0.21029700
C        4.64892000       2.14723000      10.44281000      -0.16489600      -0.02745800      -0.21056500
Li       0.92972000       2.68401000      12.00000000      -0.00224900      -0.00164100      -0.00000000
29
Lattice="6.508500099 0.0 0.0 -3.25425005 5.636526426 0.0 0.0 0.0 24.0" Properties=species:S:1:pos:R:3:forces:R:3 stress="-0.007536815756286937 5.57366764941375e-05 -0.0 5.57366764941375e-05 -0.007533339235703819 -0.0 -0.0 -0.0 -0.006024391989430283" free_energy=-261.55828683 energy=-261.55777806 pbc="T T T"
C        0.00000000       0.00000000      13.58693000      -0.08215000      -0.15151400       0.21200700
C       -0.46487000       2.41565000      13.63452000      -0.33140500      -0.04297600       0.22315300
C       -0.92980000       4.83129000      13.58765000      -0.07961600       0.14056100       0.21152300
C        1.85958000       1.61041000      13.63484000       0.22861800      -0.25672900       0.22054500
C        1.39467000       4.02611000      13.63455000       0.10055000       0.31026700       0.21916500
C        4.18405000       0.80523000      13.57818000      -0.01604600       0.01191300       0.24402100
C        3.71912000       3.22088000      13.58787000       0.17067200      -0.00977300       0.21071800
C       -2.32448000       4.56294000      13.57850000       0.00864200      -0.00372300       0.20943900
C        0.46490000       1.34206000      13.63595000      -0.12406200      -0.31525900       0.18204900
C       -0.00003000       3.75770000      13.63565000      -0.21290300       0.26160900       0.17084300
C        2.78935000       0.53682000      13.58898000       0.06884000      -0.15400400       0.17124100
C        2.32448000       2.95247000      13.63576000       0.34651900       0.08095000       0.17717000
C        1.85954000       5.36812000      13.58862000       0.07270100       0.15211800       0.16517600
C        4.64892000       2.14723000      13.58896000      -0.15031700      -0.02325100       0.17089900
C        0.00000000       0.00000000      10.41307000      -0.08215000      -0.15151400      -0.21200700
C       -0.46487000       2.41565000      10.36548000      -0.33140500      -0.04297600      -0.22315300
C       -0.92980000       4.83129000      10.41235000      -0.07961600       0.14056100      -0.21152300
C        1.85958000       1.61041000      10.36516000       0.22861800      -0.25672900      -0.22054500
C        1.39467000       4.02611000      10.36545000       0.10055000       0.31026700      -0.21916500
C        4.18405000       0.80523000      10.42182000      -0.01604600       0.01191300      -0.24402100
C        3.71912000       3.22088000      10.41213000       0.17067200      -0.00977300      -0.21071800
C       -2.32448000       4.56294000      10.42150000       0.00864200      -0.00372300      -0.20943900
C        0.46490000       1.34206000      10.36405000      -0.12406200      -0.31525900      -0.18204900
C       -0.00003000       3.75770000      10.36435000      -0.21290300       0.26160900      -0.17084300
C        2.78935000       0.53682000      10.41102000       0.06884000      -0.15400400      -0.17124100
C        2.32448000       2.95247000      10.36424000       0.34651900       0.08095000      -0.17717000
C        1.85954000       5.36812000      10.41138000       0.07270100       0.15211800      -0.16517600
C        4.64892000       2.14723000      10.41104000      -0.15031700      -0.02325100      -0.17089900
Li       0.92938000       2.68376000      12.00000000      -0.00008800      -0.00038000       0.00000000
29
Lattice="6.508500099 0.0 0.0 -3.25425005 5.636526426 0.0 0.0 0.0 24.0" Properties=species:S:1:pos:R:3:forces:R:3 stress="-0.007321845698973265 4.769761273999986e-05 -0.0 4.769761273999986e-05 -0.007271951075020954 -0.0 -0.0 -0.0 -0.0032425576135332412" free_energy=-261.73221179 energy=-261.7316673 pbc="T T T"
C        0.00000000       0.00000000      13.61952000      -0.07497500      -0.13757800       0.19251900
C       -0.46487000       2.41565000      13.68341000      -0.31070900      -0.04328700       0.05671600
C       -0.92980000       4.83129000      13.62076000      -0.07862300       0.12758700       0.15332400
C        1.85958000       1.61041000      13.68370000       0.22262900      -0.24968400       0.05955600
C        1.39467000       4.02611000      13.68311000       0.10095800       0.31242100       0.05017400
C        4.18405000       0.80523000      13.60817000      -0.01436200       0.01065700       0.18270300
C        3.71912000       3.22088000      13.62104000       0.15511400      -0.00747100       0.15209200
C       -2.32448000       4.56294000      13.60591000       0.01495900      -0.00160800       0.24540900
C        0.46490000       1.34206000      13.68230000      -0.12136400      -0.30653300       0.09065600
C       -0.00003000       3.75770000      13.68088000      -0.20118700       0.25264600       0.10138500
C        2.78935000       0.53682000      13.61940000       0.05602800      -0.13483800       0.20825300
C        2.32448000       2.95247000      13.68146000       0.31208100       0.05961300       0.10348100
C        1.85954000       5.36812000      13.61851000       0.07224600       0.14097300       0.21660300
C        4.64892000       2.14723000      13.61935000      -0.13351600      -0.02404200       0.20930300
C        0.00000000       0.00000000      10.38048000      -0.07497500      -0.13757800      -0.19251900
C       -0.46487000       2.41565000      10.31659000      -0.31070900      -0.04328700      -0.05671600
C       -0.92980000       4.83129000      10.37924000      -0.07862300       0.12758700      -0.15332400
C        1.85958000       1.61041000      10.31630000       0.22262900      -0.24968400      -0.05955600
C        1.39467000       4.02611000      10.31689000       0.10095800       0.31242100      -0.05017400
C        4.18405000       0.80523000      10.39183000      -0.01436200       0.01065700      -0.18270300
C        3.71912000       3.22088000      10.37896000       0.15511400      -0.00747100      -0.15209200
C       -2.32448000       4.56294000      10.39409000       0.01495900      -0.00160800      -0.24540900
C        0.46490000       1.34206000      10.31770000      -0.12136400      -0.30653300      -0.09065600
C       -0.00003000       3.75770000      10.31912000      -0.20118700       0.25264600      -0.10138500
C        2.78935000       0.53682000      10.38060000       0.05602800      -0.13483800      -0.20825300
C        2.32448000       2.95247000      10.31854000       0.31208100       0.05961300      -0.10348100
C        1.85954000       5.36812000      10.38149000       0.07224600       0.14097300      -0.21660300
C        4.64892000       2.14723000      10.38065000      -0.13351600      -0.02404200      -0.20930300
Li       0.92920000       2.68360000      12.00000000       0.00144000       0.00228900       0.00000000
29
Lattice="6.508500099 0.0 0.0 -3.25425005 5.636526426 0.0 0.0 0.0 24.0" Properties=species:S:1:pos:R:3:forces:R:3 stress="-0.00738218236769318 2.9016775926231264e-05 -0.0 2.9016775926231264e-05 -0.007356311312366393 -0.0 -0.0 -0.0 -0.001972541578107641" free_energy=-261.81173906 energy=-261.81100987 pbc="T T T"
C        0.00000000       0.00000000      13.64150000      -0.07469300      -0.13661800       0.17401100
C       -0.46487000       2.41565000      13.70254000      -0.28862400      -0.04431800       0.06503900
C       -0.92980000       4.83129000      13.64030000      -0.07771700       0.12456300       0.19061100
C        1.85958000       1.61041000      13.70305000       0.21186100      -0.25421600       0.06336000
C        1.39467000       4.02611000      13.70174000       0.09167000       0.30772800       0.06994500
C        4.18405000       0.80523000      13.62782000      -0.01357400       0.01727400       0.22269000
C        3.71912000       3.22088000      13.64055000       0.15286700      -0.00529400       0.19071500
C       -2.32448000       4.56294000      13.62943000       0.00965000       0.00426700       0.17706100
C        0.46490000       1.34206000      13.70349000      -0.12526300      -0.29537900       0.03615000
C       -0.00003000       3.75770000      13.70257000      -0.19593000       0.24467900       0.03248700
C        2.78935000       0.53682000      13.64237000       0.06454900      -0.12969000       0.13588100
C        2.32448000       2.95247000      13.70335000       0.30706400       0.05420500       0.03327300
C        1.85954000       5.36812000      13.64194000       0.08114300       0.13473400       0.14993700
C        4.64892000       2.14723000      13.64238000      -0.14347700      -0.02278500       0.13493300
C        0.00000000       0.00000000      10.35850000      -0.07469300      -0.13661800      -0.17401100
C       -0.46487000       2.41565000      10.29746000      -0.28862400      -0.04431800      -0.06503900
C       -0.92980000       4.83129000      10.35970000      -0.07771700       0.12456300      -0.19061100
C        1.85958000       1.61041000      10.29695000       0.21186100      -0.25421600      -0.06336000
C        1.39467000       4.02611000      10.29826000       0.09167000       0.30772800      -0.06994500
C        4.18405000       0.80523000      10.37218000      -0.01357400       0.01727400      -0.22269000
C        3.71912000       3.22088000      10.35945000       0.15286700      -0.00529400      -0.19071500
C       -2.32448000       4.56294000      10.37057000       0.00965000       0.00426700      -0.17706100
C        0.46490000       1.34206000      10.29651000      -0.12526300      -0.29537900      -0.03615000
C       -0.00003000       3.75770000      10.29743000      -0.19593000       0.24467900      -0.03248700
C        2.78935000       0.53682000      10.35763000       0.06454900      -0.12969000      -0.13588100
C        2.32448000       2.95247000      10.29665000       0.30706400       0.05420500      -0.03327300
C        1.85954000       5.36812000      10.35806000       0.08114300       0.13473400      -0.14993700
C        4.64892000       2.14723000      10.35762000      -0.14347700      -0.02278500      -0.13493300
Li       0.92923000       2.68370000      12.00000000       0.00094600       0.00170400      -0.00000000
29
Lattice="6.508500099 0.0 0.0 -3.25425005 5.636526426 0.0 0.0 0.0 24.0" Properties=species:S:1:pos:R:3:forces:R:3 stress="-0.007370510745627776 -8.382346756061216e-06 -0.0 -8.382346756061216e-06 -0.007361292036648848 -0.0 -0.0 -0.0 -0.00027118733001050166" free_energy=-261.92815104 energy=-261.92606022 pbc="T T T"
C        0.00000000       0.00000000      13.68367000      -0.07235800      -0.14153900       0.10642600
C       -0.46487000       2.41565000      13.74306000      -0.28158000      -0.04727700      -0.02450200
C       -0.92980000       4.83129000      13.68277000      -0.09009700       0.11702900       0.12877100
C        1.85958000       1.61041000      13.74363000       0.18835500      -0.23123300      -0.02901600
C        1.39467000       4.02611000      13.74231000       0.08989400       0.27659900      -0.01173800
C        4.18405000       0.80523000      13.67031000      -0.00335100       0.00605400       0.16345700
C        3.71912000       3.22088000      13.68308000       0.14361900       0.00157300       0.13374000
C       -2.32448000       4.56294000      13.66974000       0.00826400       0.00532500       0.19243700
C        0.46490000       1.34206000      13.74241000      -0.11482100      -0.26924200       0.01506500
C       -0.00003000       3.75770000      13.74112000      -0.18250400       0.22268700       0.03735500
C        2.78935000       0.53682000      13.68170000       0.08932800      -0.13185400       0.15888200
C        2.32448000       2.95247000      13.74218000       0.29146900       0.06169700       0.02608100
C        1.85954000       5.36812000      13.68264000       0.08321800       0.13380000       0.14967400
C        4.64892000       2.14723000      13.68166000      -0.14943000      -0.00224200       0.15887200
C        0.00000000       0.00000000      10.31633000      -0.07235800      -0.14153900      -0.10642600
C       -0.46487000       2.41565000      10.25694000      -0.28158000      -0.04727700       0.02450200
C       -0.92980000       4.83129000      10.31723000      -0.09009700       0.11702900      -0.12877100
C        1.85958000       1.61041000      10.25637000       0.18835500      -0.23123300       0.02901600
C        1.39467000       4.02611000      10.25769000       0.08989400       0.27659900       0.01173800
C        4.18405000       0.80523000      10.32969000      -0.00335100       0.00605400      -0.16345700
C        3.71912000       3.22088000      10.31692000       0.14361900       0.00157300      -0.13374000
C       -2.32448000       4.56294000      10.33026000       0.00826400       0.00532500      -0.19243700
C        0.46490000       1.34206000      10.25759000      -0.11482100      -0.26924200      -0.01506500
C       -0.00003000       3.75770000      10.25888000      -0.18250400       0.22268700      -0.03735500
C        2.78935000       0.53682000      10.31830000       0.08932800      -0.13185400      -0.15888200
C        2.32448000       2.95247000      10.25782000       0.29146900       0.06169700      -0.02608100
C        1.85954000       5.36812000      10.31736000       0.08321800       0.13380000      -0.14967400
C        4.64892000       2.14723000      10.31834000      -0.14943000      -0.00224200      -0.15887200
Li       0.92922000       2.68383000      12.00000000      -0.00001200      -0.00275700      -0.00000000
29
Lattice="6.508500099 0.0 0.0 -3.25425005 5.636526426 0.0 0.0 0.0 24.0" Properties=species:S:1:pos:R:3:forces:R:3 stress="-0.007457611005479478 1.1109886244072198e-06 -0.0 1.1109886244072198e-06 -0.00742126669783946 -0.0 -0.0 -0.0 0.0005082398466115479" free_energy=-261.98118858 energy=-261.97894969 pbc="T T T"
C        0.00000000       0.00000000      13.70483000      -0.07136600      -0.14523800       0.15800500
C       -0.46487000       2.41565000      13.75678000      -0.26121700      -0.04159900       0.04264000
C       -0.92980000       4.83129000      13.70524000      -0.09495000       0.10075500       0.13701100
C        1.85958000       1.61041000      13.75710000       0.18812900      -0.21383900       0.03285300
C        1.39467000       4.02611000      13.75683000       0.07958400       0.25803500       0.04819500
C        4.18405000       0.80523000      13.69451000       0.00194000       0.02213700       0.15872900
C        3.71912000       3.22088000      13.70590000       0.12958300      -0.00204500       0.13242800
C       -2.32448000       4.56294000      13.69592000       0.00540400       0.01591500       0.12546900
C        0.46490000       1.34206000      13.75874000      -0.10841400      -0.25990500      -0.02711100
C       -0.00003000       3.75770000      13.75889000      -0.17361100       0.21074700      -0.02457400
C        2.78935000       0.53682000      13.70601000       0.09733400      -0.13195100       0.10786700
C        2.32448000       2.95247000      13.75929000       0.28305100       0.06609800      -0.01595200
C        1.85954000       5.36812000      13.70660000       0.08549700       0.13163500       0.08512700
C        4.64892000       2.14723000      13.70596000      -0.16134100      -0.00950700       0.11038800
C        0.00000000       0.00000000      10.29517000      -0.07136600      -0.14523800      -0.15800500
C       -0.46487000       2.41565000      10.24322000      -0.26121700      -0.04159900      -0.04264000
C       -0.92980000       4.83129000      10.29476000      -0.09495000       0.10075500      -0.13701100
C        1.85958000       1.61041000      10.24290000       0.18812900      -0.21383900      -0.03285300
C        1.39467000       4.02611000      10.24317000       0.07958400       0.25803500      -0.04819500
C        4.18405000       0.80523000      10.30549000       0.00194000       0.02213700      -0.15872900
C        3.71912000       3.22088000      10.29410000       0.12958300      -0.00204500      -0.13242800
C       -2.32448000       4.56294000      10.30408000       0.00540400       0.01591500      -0.12546900
C        0.46490000       1.34206000      10.24126000      -0.10841400      -0.25990500       0.02711100
C       -0.00003000       3.75770000      10.24111000      -0.17361100       0.21074700       0.02457400
C        2.78935000       0.53682000      10.29399000       0.09733400      -0.13195100      -0.10786700
C        2.32448000       2.95247000      10.24071000       0.28305100       0.06609800       0.01595200
C        1.85954000       5.36812000      10.29340000       0.08549700       0.13163500      -0.08512700
C        4.64892000       2.14723000      10.29404000      -0.16134100      -0.00950700      -0.11038800
Li       0.92920000       2.68366000      12.00000000       0.00075300      -0.00247200       0.00000000
29
Lattice="6.508500099 0.0 0.0 -3.25425005 5.636526426 0.0 0.0 0.0 24.0" Properties=species:S:1:pos:R:3:forces:R:3 stress="-0.007493899139537364 6.197818562002075e-06 -0.0 6.197818562002075e-06 -0.007500808490139717 -0.0 -0.0 -0.0 0.0006345555083011733" free_energy=-261.99990716 energy=-261.99771164 pbc="T T T"
C        0.00000000       0.00000000      13.71595000      -0.07430700      -0.15274200       0.09270500
C       -0.46487000       2.41565000      13.76135000      -0.26513400      -0.03469600      -0.00309700
C       -0.92980000       4.83129000      13.71524000      -0.09626200       0.11560900       0.08176500
C        1.85958000       1.61041000      13.76112000       0.18579700      -0.20917900       0.00424100
C        1.39467000       4.02611000      13.76173000       0.07577900       0.24380500      -0.00575400
C        4.18405000       0.80523000      13.70572000       0.00070900       0.02204300       0.11470000
C        3.71912000       3.22088000      13.71566000       0.14696200      -0.00289100       0.08228300
C       -2.32448000       4.56294000      13.70537000       0.00360700       0.01431300       0.13945600
C        0.46490000       1.34206000      13.75955000      -0.10596500      -0.24972800       0.04287200
C       -0.00003000       3.75770000      13.75989000      -0.16900900       0.20342700       0.04305700
C        2.78935000       0.53682000      13.71445000       0.09620900      -0.14226700       0.11856900
C        2.32448000       2.95247000      13.76075000       0.27357900       0.06423900       0.04325700
C        1.85954000       5.36812000      13.71379000       0.08499600       0.13625800       0.13197500
C        4.64892000       2.14723000      13.71454000      -0.15679400      -0.00723000       0.12107900
C        0.00000000       0.00000000      10.28405000      -0.07430700      -0.15274200      -0.09270500
C       -0.46487000       2.41565000      10.23865000      -0.26513400      -0.03469600       0.00309700
C       -0.92980000       4.83129000      10.28476000      -0.09626200       0.11560900      -0.08176500
C        1.85958000       1.61041000      10.23888000       0.18579700      -0.20917900      -0.00424100
C        1.39467000       4.02611000      10.23827000       0.07577900       0.24380500       0.00575400
C        4.18405000       0.80523000      10.29428000       0.00070900       0.02204300      -0.11470000
C        3.71912000       3.22088000      10.28434000       0.14696200      -0.00289100      -0.08228300
C       -2.32448000       4.56294000      10.29463000       0.00360700       0.01431300      -0.13945600
C        0.46490000       1.34206000      10.24045000      -0.10596500      -0.24972800      -0.04287200
C       -0.00003000       3.75770000      10.24011000      -0.16900900       0.20342700      -0.04305700
C        2.78935000       0.53682000      10.28555000       0.09620900      -0.14226700      -0.11856900
C        2.32448000       2.95247000      10.23925000       0.27357900       0.06423900      -0.04325700
C        1.85954000       5.36812000      10.28621000       0.08499600       0.13625800      -0.13197500
C        4.64892000       2.14723000      10.28546000      -0.15679400      -0.00723000      -0.12107900
Li       0.92924000       2.68352000      12.00000000      -0.00033200      -0.00192000       0.00000000
29
Lattice="6.508500099 0.0 0.0 -3.25425005 5.636526426 0.0 0.0 0.0 24.0" Properties=species:S:1:pos:R:3:forces:R:3 stress="-0.007847143590025852 2.0272421640868824e-05 -0.0 2.0272421640868824e-05 -0.007844016593953786 -0.0 -0.0 -0.0 0.001701878534863714" free_energy=-262.09591107 energy=-262.09363404 pbc="T T T"
C        0.00000000       0.00000000      13.78449000      -0.07390900      -0.15721400      -0.03309800
C       -0.46487000       2.41565000      13.80146000      -0.23303600      -0.03272800       0.03932400
C       -0.92980000       4.83129000      13.78049000      -0.08707100       0.13030200       0.04771600
C        1.85958000       1.61041000      13.80096000       0.15585700      -0.18467800       0.05156200
C        1.39467000       4.02611000      13.80254000       0.07522800       0.21679800       0.02432500
C        4.18405000       0.80523000      13.77790000      -0.01500700       0.01389800       0.06190900
C        3.71912000       3.22088000      13.78074000       0.16633900      -0.00248400       0.06255600
C       -2.32448000       4.56294000      13.77834000       0.00617500       0.00168200       0.05687900
C        0.46490000       1.34206000      13.79927000      -0.08523700      -0.20954700       0.09419800
C       -0.00003000       3.75770000      13.80080000      -0.14584600       0.18392700       0.05568400
C        2.78935000       0.53682000      13.78207000       0.07256100      -0.14423200       0.02028800
C        2.32448000       2.95247000      13.80239000       0.24069200       0.06146400       0.03570500
C        1.85954000       5.36812000      13.78078000       0.06951900       0.15459900       0.06425500
C        4.64892000       2.14723000      13.78277000      -0.14699400      -0.03485200       0.01528400
C        0.00000000       0.00000000      10.21551000      -0.07390900      -0.15721400       0.03309800
C       -0.46487000       2.41565000      10.19854000      -0.23303600      -0.03272800      -0.03932400
C       -0.92980000       4.83129000      10.21951000      -0.08707100       0.13030200      -0.04771600
C        1.85958000       1.61041000      10.19904000       0.15585700      -0.18467800      -0.05156200
C        1.39467000       4.02611000      10.19746000       0.07522800       0.21679800      -0.02432500
C        4.18405000       0.80523000      10.22210000      -0.01500700       0.01389800      -0.06190900
C        3.71912000       3.22088000      10.21926000       0.16633900      -0.00248400      -0.06255600
C       -2.32448000       4.56294000      10.22166000       0.00617500       0.00168200      -0.05687900
C        0.46490000       1.34206000      10.20073000      -0.08523700      -0.20954700      -0.09419800
C       -0.00003000       3.75770000      10.19920000      -0.14584600       0.18392700      -0.05568400
C        2.78935000       0.53682000      10.21793000       0.07256100      -0.14423200      -0.02028800
C        2.32448000       2.95247000      10.19761000       0.24069200       0.06146400      -0.03570500