29
Lattice="6.508500099 0.0 0.0 -3.25425005 5.636526426 0.0 0.0 0.0 24.0" Properties=species:S:1:pos:R:3:forces:R:3 stress="-0.007854208978356354 1.7326429333451925e-05 -0.0 1.7326429333451925e-05 -0.007846943861733824 -0.0 -0.0 -0.0 0.000445088257275861" free_energy=-262.0238 energy=-262.02174585 pbc="T T T"
C        0.00000000       0.00000000      13.75000000      -0.07575600      -0.15657300       0.00131900
C       -0.46487000       2.41565000      13.75000000      -0.24453800      -0.04082800       0.15231200
C       -0.92980000       4.83129000      13.75000000      -0.10428000       0.13082100      -0.00637100
C        1.85958000       1.61041000      13.75000000       0.16659900      -0.20498500       0.15114700
C        1.39467000       4.02611000      13.75000000       0.08091100       0.24579900       0.15240800
C        4.18405000       0.80523000      13.75000000      -0.00060700       0.00590800       0.03689000
C        3.71912000       3.22088000      13.75000000       0.16289300       0.01138200      -0.00765100
C       -2.32448000       4.56294000      13.75000000       0.00991900       0.01543700       0.03030300
C        0.46490000       1.34206000      13.75000000      -0.10616200      -0.24022600       0.14452000
C       -0.00003000       3.75770000      13.75000000      -0.15933200       0.19852800       0.14530600
C        2.78935000       0.53682000      13.75000000       0.07672600      -0.14174800      -0.00801600
C        2.32448000       2.95247000      13.75000000       0.26414000       0.06540300       0.15085100
C        1.85954000       5.36812000      13.75000000       0.08581100       0.14320400      -0.01423100
C        4.64892000       2.14723000      13.75000000      -0.15594700      -0.03208700      -0.00800800
C        0.00000000       0.00000000      10.25000000      -0.07575600      -0.15657300      -0.00131900
C       -0.46487000       2.41565000      10.25000000      -0.24453800      -0.04082800      -0.15231200
C       -0.92980000       4.83129000      10.25000000      -0.10428000       0.13082100       0.00637100
C        1.85958000       1.61041000      10.25000000       0.16659900      -0.20498500      -0.15114700
C        1.39467000       4.02611000      10.25000000       0.08091100       0.24579900      -0.15240800
C        4.18405000       0.80523000      10.25000000      -0.00060700       0.00590800      -0.03689000
C        3.71912000       3.22088000      10.25000000       0.16289300       0.01138200       0.00765100
C       -2.32448000       4.56294000      10.25000000       0.00991900       0.01543700      -0.03030300
C        0.46490000       1.34206000      10.25000000      -0.10616200      -0.24022600      -0.14452000
C       -0.00003000       3.75770000      10.25000000      -0.15933200       0.19852800      -0.14530600
C        2.78935000       0.53682000      10.25000000       0.07672600      -0.14174800       0.00801600
C        2.32448000       2.95247000      10.25000000       0.26414000       0.06540300      -0.15085100
C        1.85954000       5.36812000      10.25000000       0.08581100       0.14320400       0.01423100
C        4.64892000       2.14723000      10.25000000      -0.15594700      -0.03208700       0.00800800
Li       0.92980000       2.68406000      12.00000000      -0.00075300      -0.00006700       0.00000000
29
Lattice="6.508500099 0.0 0.0 -3.25425005 5.636526426 0.0 0.0 0.0 24.0" Properties=species:S:1:pos:R:3:forces:R:3 stress="-0.007857641808375587 2.2282187579403234e-05 -0.0 2.2282187579403234e-05 -0.007869575573824276 -0.0 -0.0 -0.0 0.0006153316601934529" free_energy=-262.03594 energy=-262.03388504 pbc="T T T"
C        0.00000000       0.00000000      13.75006000      -0.07535200      -0.15825100       0.02689500
C       -0.46487000       2.41565000      13.75735000      -0.24923500      -0.02884600       0.11850600
C       -0.92980000       4.83129000      13.74969000      -0.10464400       0.13060900       0.02521300
C        1.85958000       1.61041000      13.75729000       0.17332300      -0.19168900       0.12233500
C        1.39467000       4.02611000      13.75735000       0.07400700       0.22808600       0.11839300
C        4.18405000       0.80523000      13.75178000      -0.00013200       0.00528000      -0.00582800
C        3.71912000       3.22088000      13.74963000       0.16400600       0.01115000       0.02667600
C       -2.32448000       4.56294000      13.75146000       0.01033000       0.01477900      -0.00339300
C        0.46490000       1.34206000      13.75697000      -0.10403600      -0.23770200       0.12935400
C       -0.00003000       3.75770000      13.75701000      -0.15674800       0.19510100       0.13371800
C        2.78935000       0.53682000      13.74961000       0.08060800      -0.14311000       0.03744800
C        2.32448000       2.95247000      13.75728000       0.26112300       0.06406000       0.12968400
C        1.85954000       5.36812000      13.74931000       0.08406000       0.14156200       0.03320900
C        4.64892000       2.14723000      13.74961000      -0.15731500      -0.03070900       0.03737500
C        0.00000000       0.00000000      10.24994000      -0.07535200      -0.15825100      -0.02689500
C       -0.46487000       2.41565000      10.24265000      -0.24923500      -0.02884600      -0.11850600
C       -0.92980000       4.83129000      10.25031000      -0.10464400       0.13060900      -0.02521300
C        1.85958000       1.61041000      10.24271000       0.17332300      -0.19168900      -0.12233500
C        1.39467000       4.02611000      10.24265000       0.07400700       0.22808600      -0.11839300
C        4.18405000       0.80523000      10.24822000      -0.00013200       0.00528000       0.00582800
C        3.71912000       3.22088000      10.25037000       0.16400600       0.01115000      -0.02667600
C       -2.32448000       4.56294000      10.24854000       0.01033000       0.01477900       0.00339300
C        0.46490000       1.34206000      10.24303000      -0.10403600      -0.23770200      -0.12935400
C       -0.00003000       3.75770000      10.24299000      -0.15674800       0.19510100      -0.13371800
C        2.78935000       0.53682000      10.25039000       0.08060800      -0.14311000      -0.03744800
C        2.32448000       2.95247000      10.24272000       0.26112300       0.06406000      -0.12968400
C        1.85954000       5.36812000      10.25069000       0.08406000       0.14156200      -0.03320900
C        4.64892000       2.14723000      10.25039000      -0.15731500      -0.03070900      -0.03737500
Li       0.92977000       2.68405000      12.00000000       0.00001200      -0.00064000       0.00000000
29
Lattice="6.508500099 0.0 0.0 -3.25425005 5.636526426 0.0 0.0 0.0 24.0" Properties=species:S:1:pos:R:3:forces:R:3 stress="-0.007810462240893037 1.3737561586069049e-05 -0.0 1.3737561586069049e-05 -0.007848579137124806 -0.0 -0.0 -0.0 0.000856921753929016" free_energy=-262.04982931 energy=-262.04775339 pbc="T T T"
C        0.00000000       0.00000000      13.75217000      -0.07627500      -0.15795900       0.03703600
C       -0.46487000       2.41565000      13.76664000      -0.24552300      -0.02891900       0.10172400
C       -0.92980000       4.83129000      13.75167000      -0.10564300       0.12983400       0.05057100
C        1.85958000       1.61041000      13.76689000       0.17067600      -0.19014100       0.09908400
C        1.39467000       4.02611000      13.76664000       0.07128400       0.22651100       0.10004800
C        4.18405000       0.80523000      13.75132000      -0.00142700       0.00526500       0.03416800
C        3.71912000       3.22088000      13.75172000       0.16216900       0.01108500       0.04879700
C       -2.32448000       4.56294000      13.75120000       0.00909400       0.01476300       0.01908500
C        0.46490000       1.34206000      13.76712000      -0.09172500      -0.23216800       0.08680700
C       -0.00003000       3.75770000      13.76750000      -0.15574000       0.19229000       0.09488100
C        2.78935000       0.53682000      13.75255000       0.07684200      -0.14256100       0.03053200
C        2.32448000       2.95247000      13.76745000       0.25970700       0.06240000       0.09216200
C        1.85954000       5.36812000      13.75192000       0.08477900       0.14337500       0.03286500
C        4.64892000       2.14723000      13.75254000      -0.15760500      -0.03346500       0.02940000
C        0.00000000       0.00000000      10.24783000      -0.07627500      -0.15795900      -0.03703600
C       -0.46487000       2.41565000      10.23336000      -0.24552300      -0.02891900      -0.10172400
C       -0.92980000       4.83129000      10.24833000      -0.10564300       0.12983400      -0.05057100
C        1.85958000       1.61041000      10.23311000       0.17067600      -0.19014100      -0.09908400
C        1.39467000       4.02611000      10.23336000       0.07128400       0.22651100      -0.10004800
C        4.18405000       0.80523000      10.24868000      -0.00142700       0.00526500      -0.03416800
C        3.71912000       3.22088000      10.24828000       0.16216900       0.01108500      -0.04879700
C       -2.32448000       4.56294000      10.24880000       0.00909400       0.01476300      -0.01908500
C        0.46490000       1.34206000      10.23288000      -0.09172500      -0.23216800      -0.08680700
C       -0.00003000       3.75770000      10.23250000      -0.15574000       0.19229000      -0.09488100
C        2.78935000       0.53682000      10.24745000       0.07684200      -0.14256100      -0.03053200
C        2.32448000       2.95247000      10.23255000       0.25970700       0.06240000      -0.09216200
C        1.85954000       5.36812000      10.24808000       0.08477900       0.14337500      -0.03286500
C        4.64892000       2.14723000      10.24746000      -0.15760500      -0.03346500      -0.02940000
Li       0.92977000       2.68400000      12.00000000      -0.00122600      -0.00061700      -0.00000000
29
Lattice="6.508500099 0.0 0.0 -3.25425005 5.636526426 0.0 0.0 0.0 24.0" Properties=species:S:1:pos:R:3:forces:R:3 stress="-0.007835209824577164 -2.802437597521583e-06 -0.0 -2.802437597521583e-06 -0.007859807612042271 -0.0 -0.0 -0.0 0.0012808076047042519" free_energy=-262.06851044 energy=-262.06635486 pbc="T T T"
C        0.00000000       0.00000000      13.75765000      -0.07533300      -0.15636400       0.04379000
C       -0.46487000       2.41565000      13.78401000      -0.25103000      -0.02659100       0.05591400
C       -0.92980000       4.83129000      13.75854000      -0.09309300       0.12513300       0.04573200
C        1.85958000       1.61041000      13.78416000       0.16845500      -0.18160400       0.05346700
C        1.39467000       4.02611000      13.78381000       0.07199800       0.21448900       0.06096200
C        4.18405000       0.80523000      13.75477000      -0.00875200       0.01128600       0.04519700
C        3.71912000       3.22088000      13.75848000       0.16235000      -0.00151400       0.04298900
C       -2.32448000       4.56294000      13.75311000       0.00865100       0.01434200       0.07294000
C        0.46490000       1.34206000      13.78341000      -0.08247600      -0.22327400       0.04898700
C       -0.00003000       3.75770000      13.78490000      -0.15399900       0.18925800       0.04731100
C        2.78935000       0.53682000      13.75786000       0.07514100      -0.14005600       0.07181800
C        2.32448000       2.95247000      13.78435000       0.25119500       0.06763000       0.05270800
C        1.85954000       5.36812000      13.75726000       0.08288300       0.14091000       0.06426300
C        4.64892000       2.14723000      13.75773000      -0.15516900      -0.03368200       0.07216600
C        0.00000000       0.00000000      10.24235000      -0.07533300      -0.15636400      -0.04379000
C       -0.46487000       2.41565000      10.21599000      -0.25103000      -0.02659100      -0.05591400
C       -0.92980000       4.83129000      10.24146000      -0.09309300       0.12513300      -0.04573200
C        1.85958000       1.61041000      10.21584000       0.16845500      -0.18160400      -0.05346700
C        1.39467000       4.02611000      10.21619000       0.07199800       0.21448900      -0.06096200
C        4.18405000       0.80523000      10.24523000      -0.00875200       0.01128600      -0.04519700
C        3.71912000       3.22088000      10.24152000       0.16235000      -0.00151400      -0.04298900
C       -2.32448000       4.56294000      10.24689000       0.00865100       0.01434200      -0.07294000
C        0.46490000       1.34206000      10.21659000      -0.08247600      -0.22327400      -0.04898700
C       -0.00003000       3.75770000      10.21510000      -0.15399900       0.18925800      -0.04731100
C        2.78935000       0.53682000      10.24214000       0.07514100      -0.14005600      -0.07181800
C        2.32448000       2.95247000      10.21565000       0.25119500       0.06763000      -0.05270800
C        1.85954000       5.36812000      10.24274000       0.08288300       0.14091000      -0.06426300
C        4.64892000       2.14723000      10.24227000      -0.15516900      -0.03368200      -0.07216600
Li       0.92963000       2.68390000      12.00000000      -0.00164700       0.00007200      -0.00000000
29
Lattice="6.508500099 0.0 0.0 -3.25425005 5.636526426 0.0 0.0 0.0 24.0" Properties=species:S:1:pos:R:3:forces:R:3 stress="-0.007830840768189046 -6.303924217142091e-06 -0.0 -6.303924217142091e-06 -0.007841888239341859 -0.0 -0.0 -0.0 0.0014248179447657562" free_energy=-262.07426445 energy=-262.07207683 pbc="T T T"
C        0.00000000       0.00000000      13.76027000      -0.07366300      -0.15583700       0.06103300
C       -0.46487000       2.41565000      13.78894000      -0.24725300      -0.02680800       0.04621000
C       -0.92980000       4.83129000      13.76149000      -0.08953700       0.12537200       0.05368900
C        1.85958000       1.61041000      13.78897000       0.16685700      -0.18177000       0.04690300
C        1.39467000       4.02611000      13.78891000       0.07276200       0.21459300       0.04903900
C        4.18405000       0.80523000      13.75719000      -0.01465500       0.00687300       0.05843400
C        3.71912000       3.22088000      13.76129000       0.16254900      -0.00322200       0.05385500
C       -2.32448000       4.56294000      13.75634000       0.00982100       0.01416100       0.06269800
C        0.46490000       1.34206000      13.78784000      -0.08191000      -0.21933200       0.04293800
C       -0.00003000       3.75770000      13.78946000      -0.15181400       0.18813800       0.03927800
C        2.78935000       0.53682000      13.76152000       0.07719800      -0.13875500       0.06412000
C        2.32448000       2.95247000      13.78903000       0.24703600       0.06814300       0.03868100
C        1.85954000       5.36812000      13.76064000       0.07691600       0.14142700       0.05631800
C        4.64892000       2.14723000      13.76138000      -0.15427100      -0.03322300       0.06431400
C        0.00000000       0.00000000      10.23973000      -0.07366300      -0.15583700      -0.06103300
C       -0.46487000       2.41565000      10.21106000      -0.24725300      -0.02680800      -0.04621000
C       -0.92980000       4.83129000      10.23851000      -0.08953700       0.12537200      -0.05368900
C        1.85958000       1.61041000      10.21103000       0.16685700      -0.18177000      -0.04690300
C        1.39467000       4.02611000      10.21109000       0.07276200       0.21459300      -0.04903900
C        4.18405000       0.80523000      10.24281000      -0.01465500       0.00687300      -0.05843400
C        3.71912000       3.22088000      10.23871000       0.16254900      -0.00322200      -0.05385500
C       -2.32448000       4.56294000      10.24366000       0.00982100       0.01416100      -0.06269800
C        0.46490000       1.34206000      10.21216000      -0.08191000      -0.21933200      -0.04293800
C       -0.00003000       3.75770000      10.21054000      -0.15181400       0.18813800      -0.03927800
C        2.78935000       0.53682000      10.23848000       0.07719800      -0.13875500      -0.06412000
C        2.32448000       2.95247000      10.21097000       0.24703600       0.06814300      -0.03868100
C        1.85954000       5.36812000      10.23936000       0.07691600       0.14142700      -0.05631800
C        4.64892000       2.14723000      10.23862000      -0.15427100      -0.03322300      -0.06431400
Li       0.92955000       2.68389000      12.00000000      -0.00007500       0.00048200      -0.00000000
29
Lattice="6.508500099 0.0 0.0 -3.25425005 5.636526426 0.0 0.0 0.0 24.0" Properties=species:S:1:pos:R:3:forces:R:3 stress="-0.007816928444347452 -9.474610853090788e-06 -0.0 -9.474610853090788e-06 -0.007832363696415762 -0.0 -0.0 -0.0 0.0015204503475925394" free_energy=-262.08291892 energy=-262.08068462 pbc="T T T"
C        0.00000000       0.00000000      13.76689000      -0.07310000      -0.15562100       0.02542000
C       -0.46487000       2.41565000      13.79548000      -0.23932700      -0.03410500       0.02626000
C       -0.92980000       4.83129000      13.76758000      -0.08978300       0.12758600       0.05114300
C        1.85958000       1.61041000      13.79557000       0.16069700      -0.19017300       0.02446200
C        1.39467000       4.02611000      13.79564000       0.07698300       0.22139500       0.02056400
C        4.18405000       0.80523000      13.76333000      -0.01461600       0.01010000       0.05401300
C        3.71912000       3.22088000      13.76740000       0.16430100      -0.00113200       0.04923300
C       -2.32448000       4.56294000      13.76229000       0.00724700       0.00604800       0.06360800
C        0.46490000       1.34206000      13.79388000      -0.08345100      -0.21373700       0.04864700
C       -0.00003000       3.75770000      13.79531000      -0.14987700       0.18649600       0.04202400
C        2.78935000       0.53682000      13.76801000       0.07311500      -0.13394100       0.06093200
C        2.32448000       2.95247000      13.79469000       0.24733400       0.06541700       0.04732400
C        1.85954000       5.36812000      13.76645000       0.07549700       0.14971500       0.06413800
C        4.64892000       2.14723000      13.76787000      -0.15505300      -0.03841900       0.06064500
C        0.00000000       0.00000000      10.23311000      -0.07310000      -0.15562100      -0.02542000
C       -0.46487000       2.41565000      10.20452000      -0.23932700      -0.03410500      -0.02626000
C       -0.92980000       4.83129000      10.23242000      -0.08978300       0.12758600      -0.05114300
C        1.85958000       1.61041000      10.20443000       0.16069700      -0.19017300      -0.02446200
C        1.39467000       4.02611000      10.20436000       0.07698300       0.22139500      -0.02056400
C        4.18405000       0.80523000      10.23667000      -0.01461600       0.01010000      -0.05401300
C        3.71912000       3.22088000      10.23260000       0.16430100      -0.00113200      -0.04923300
C       -2.32448000       4.56294000      10.23771000       0.00724700       0.00604800      -0.06360800
C        0.46490000       1.34206000      10.20612000      -0.08345100      -0.21373700      -0.04864700
C       -0.00003000       3.75770000      10.20469000      -0.14987700       0.18649600      -0.04202400
C        2.78935000       0.53682000      10.23199000       0.07311500      -0.13394100      -0.06093200
C        2.32448000       2.95247000      10.20531000       0.24733400       0.06541700      -0.04732400
C        1.85954000       5.36812000      10.23355000       0.07549700       0.14971500      -0.06413800
C        4.64892000       2.14723000      10.23213000      -0.15505300      -0.03841900      -0.06064500
Li       0.92954000       2.68392000      12.00000000       0.00006100       0.00074300      -0.00000000
29
Lattice="6.508500099 0.0 0.0 -3.25425005 5.636526426 0.0 0.0 0.0 24.0" Properties=species:S:1:pos:R:3:forces:R:3 stress="-0.007809394942832511 1.275764465330538e-05 -0.0 1.275764465330538e-05 -0.007817714874497313 -0.0 -0.0 -0.0 0.0018861341257689135" free_energy=-262.09662749 energy=-262.09434399 pbc="T T T"
C        0.00000000       0.00000000      13.77717000      -0.07258100      -0.15336000       0.04647600
C       -0.46487000       2.41565000      13.80521000      -0.23409500      -0.02926300       0.03691400
C       -0.92980000       4.83129000      13.77973000      -0.08863000       0.12620400       0.05465900
C        1.85958000       1.61041000      13.80524000       0.15919400      -0.18352300       0.03766000
C        1.39467000       4.02611000      13.80493000       0.07488900       0.21752700       0.03228900
C        4.18405000       0.80523000      13.77597000      -0.01502000       0.01225200       0.05597200
C        3.71912000       3.22088000      13.77945000       0.16307800      -0.00245200       0.05344500
C       -2.32448000       4.56294000      13.77473000       0.00817600      -0.00096500       0.04747600
C        0.46490000       1.34206000      13.80513000      -0.08220000      -0.20864700       0.01999900
C       -0.00003000       3.75770000      13.80574000      -0.14660100       0.18401300       0.02473500
C        2.78935000       0.53682000      13.78074000       0.06914500      -0.14291100       0.04069500
C        2.32448000       2.95247000      13.80523000       0.24256200       0.06554300       0.02633300
C        1.85954000       5.36812000      13.77882000       0.06755800       0.15255900       0.04037800
C        4.64892000       2.14723000      13.78053000      -0.14534700      -0.03738400       0.04150300
C        0.00000000       0.00000000      10.22283000      -0.07258100      -0.15336000      -0.04647600
C       -0.46487000       2.41565000      10.19479000      -0.23409500      -0.02926300      -0.03691400
C       -0.92980000       4.83129000      10.22027000      -0.08863000       0.12620400      -0.05465900
C        1.85958000       1.61041000      10.19476000       0.15919400      -0.18352300      -0.03766000
C        1.39467000       4.02611000      10.19507000       0.07488900       0.21752700      -0.03228900
C        4.18405000       0.80523000      10.22403000      -0.01502000       0.01225200      -0.05597200
C        3.71912000       3.22088000      10.22055000       0.16307800      -0.00245200      -0.05344500
C       -2.32448000       4.56294000      10.22527000       0.00817600      -0.00096500      -0.04747600
C        0.46490000       1.34206000      10.19487000      -0.08220000      -0.20864700      -0.01999900
C       -0.00003000       3.75770000      10.19426000      -0.14660100       0.18401300      -0.02473500
C        2.78935000       0.53682000      10.21926000       0.06914500      -0.14291100      -0.04069500
C        2.32448000       2.95247000      10.19477000       0.24256200       0.06554300      -0.02633300
C        1.85954000       5.36812000      10.22118000       0.06755800       0.15255900      -0.04037800
C        4.64892000       2.14723000      10.21947000      -0.14534700      -0.03738400      -0.04150300
Li       0.92956000       2.68404000      12.00000000      -0.00025700       0.00081500      -0.00000000
29
Lattice="6.508500099 0.0 0.0 -3.25425005 5.636526426 0.0 0.0 0.0 24.0" Properties=species:S:1:pos:R:3:forces:R:3 stress="-0.0077876432835288075 3.633182462176644e-05 -0.0 3.633182462176644e-05 -0.007765960280825489 -0.0 -0.0 -0.0 0.002810564042403483" free_energy=-262.13056373 energy=-262.12868778 pbc="T T T"
C        0.00000000       0.00000000      13.81211000      -0.07120800      -0.15144900       0.09673200
C       -0.46487000       2.41565000      13.83946000      -0.21445600      -0.02137900       0.02138100
C       -0.92980000       4.83129000      13.81956000      -0.08803200       0.12906400       0.00946300
C        1.85958000       1.61041000      13.83949000       0.15620800      -0.16716600       0.02515300
C        1.39467000       4.02611000      13.83772000       0.06148200       0.20395700       0.02248300
C        4.18405000       0.80523000      13.81653000      -0.01794500       0.00764400       0.02531000
C        3.71912000       3.22088000      13.81890000       0.16683200      -0.00148100       0.01245300
C       -2.32448000       4.56294000      13.81308000       0.01022700      -0.00779300       0.04728600
C        0.46490000       1.34206000      13.83974000      -0.08883200      -0.20295600      -0.02144300
C       -0.00003000       3.75770000      13.83925000      -0.13625400       0.17356200       0.02257000
C        2.78935000       0.53682000      13.81979000       0.07060000      -0.14314700       0.02226700
C        2.32448000       2.95247000      13.83891000       0.23047600       0.06045000       0.00474000
C        1.85954000       5.36812000      13.81652000       0.06605700       0.15809100       0.02276000
C        4.64892000       2.14723000      13.81955000      -0.14505400      -0.03725800       0.02511900
C        0.00000000       0.00000000      10.18789000      -0.07120800      -0.15144900      -0.09673200
C       -0.46487000       2.41565000      10.16054000      -0.21445600      -0.02137900      -0.02138100
C       -0.92980000       4.83129000      10.18044000      -0.08803200       0.12906400      -0.00946300
C        1.85958000       1.61041000      10.16051000       0.15620800      -0.16716600      -0.02515300
C        1.39467000       4.02611000      10.16228000       0.06148200       0.20395700      -0.02248300
C        4.18405000       0.80523000      10.18347000      -0.01794500       0.00764400      -0.02531000
C        3.71912000       3.22088000      10.18110000       0.16683200      -0.00148100      -0.01245300
C       -2.32448000       4.56294000      10.18692000       0.01022700      -0.00779300      -0.04728600
C        0.46490000       1.34206000      10.16026000      -0.08883200      -0.20295600       0.02144300
C       -0.00003000       3.75770000      10.16075000      -0.13625400       0.17356200      -0.02257000
C        2.78935000       0.53682000      10.18021000       0.07060000      -0.14314700      -0.02226700
C        2.32448000       2.95247000      10.16109000       0.23047600       0.06045000      -0.00474000
C        1.85954000       5.36812000      10.18348000       0.06605700       0.15809100      -0.02276000
C        4.64892000       2.14723000      10.18045000      -0.14505400      -0.03725800      -0.02511900
Li       0.92956000       2.68442000      12.00000000      -0.00020300      -0.00028000       0.00000000
29
Lattice="6.508500099 0.0 0.0 -3.25425005 5.636526426 0.0 0.0 0.0 24.0" Properties=species:S:1:pos:R:3:forces:R:3 stress="-0.007799651947087007 2.8005651447838182e-05 -0.0 2.8005651447838182e-05 -0.007772002061659344 -0.0 -0.0 -0.0 0.0027160176621646034" free_energy=-262.12761637 energy=-262.12563917 pbc="T T T"
C        0.00000000       0.00000000      13.81060000      -0.07357600      -0.15458700       0.04369300
C       -0.46487000       2.41565000      13.83495000      -0.22065300      -0.02098500       0.01717900
C       -0.92980000       4.83129000      13.81379000      -0.08489000       0.13504500       0.02291300
C        1.85958000       1.61041000      13.83514000       0.15598300      -0.16853200       0.01130700
C        1.39467000       4.02611000      13.83345000       0.06262000       0.20431400       0.02325900
C        4.18405000       0.80523000      13.81128000      -0.01764800       0.00598500       0.02300300
C        3.71912000       3.22088000      13.81330000       0.16912500       0.00040300       0.02431800
C       -2.32448000       4.56294000      13.80902000       0.01062400      -0.00616600       0.04832400
C        0.46490000       1.34206000      13.83331000      -0.08268100      -0.20718900       0.03084100
C       -0.00003000       3.75770000      13.83481000      -0.13936500       0.17402600       0.00913700
C        2.78935000       0.53682000      13.81455000       0.07303400      -0.14148300       0.02267700
C        2.32448000       2.95247000      13.83373000       0.23471900       0.05939000       0.02186800
C        1.85954000       5.36812000      13.81152000       0.06316400       0.15456500       0.04621500
C        4.64892000       2.14723000      13.81444000      -0.14961200      -0.03487100       0.02180000
C        0.00000000       0.00000000      10.18940000      -0.07357600      -0.15458700      -0.04369300
C       -0.46487000       2.41565000      10.16505000      -0.22065300      -0.02098500      -0.01717900
C       -0.92980000       4.83129000      10.18621000      -0.08489000       0.13504500      -0.02291300
C        1.85958000       1.61041000      10.16486000       0.15598300      -0.16853200      -0.01130700
C        1.39467000       4.02611000      10.16655000       0.06262000       0.20431400      -0.02325900
C        4.18405000       0.80523000      10.18872000      -0.01764800       0.00598500      -0.02300300
C        3.71912000       3.22088000      10.18670000       0.16912500       0.00040300      -0.02431800
C       -2.32448000       4.56294000      10.19098000       0.01062400      -0.00616600      -0.04832400
C        0.46490000       1.34206000      10.16669000      -0.08268100      -0.20718900      -0.03084100
C       -0.00003000       3.75770000      10.16519000      -0.13936500       0.17402600      -0.00913700
C        2.78935000       0.53682000      10.18545000       0.07303400      -0.14148300      -0.02267700
C        2.32448000       2.95247000      10.16627000       0.23471900       0.05939000      -0.02186800