29
Lattice="6.508500099 0.0 0.0 -3.25425005 5.636526426 0.0 0.0 0.0 24.0" Properties=species:S:1:pos:R:3:forces:R:3 stress="-0.007695212774883603 1.833131230271913e-05 -0.0 1.833131230271913e-05 -0.007689239650650132 -0.0 -0.0 -0.0 0.004783286624275775" free_energy=-262.15847292 energy=-262.15791977 pbc="T T T"
C        0.00000000       0.00000000      13.90000000      -0.07141100      -0.15535400      -0.02837700
C       -0.46487000       2.41565000      13.90000000      -0.17898900      -0.02862200       0.02634100
C       -0.92980000       4.83129000      13.90000000      -0.10826400       0.11647700      -0.02744800
C        1.85958000       1.61041000      13.90000000       0.13946900      -0.17328400       0.02626000
C        1.39467000       4.02611000      13.90000000       0.05423700       0.20014000       0.02639700
C        4.18405000       0.80523000      13.90000000       0.00510700       0.01990200       0.01396900
C        3.71912000       3.22088000      13.90000000       0.14469200       0.01273400      -0.02747500
C       -2.32448000       4.56294000      13.90000000       0.00746300       0.00909500       0.01396400
C        0.46490000       1.34206000      13.90000000      -0.07972300      -0.18647600       0.02633000
C       -0.00003000       3.75770000      13.90000000      -0.12327800       0.15513300       0.02538400
C        2.78935000       0.53682000      13.90000000       0.10565300      -0.13457000      -0.02747300
C        2.32448000       2.95247000      13.90000000       0.19706600       0.03036100       0.02612800
C        1.85954000       5.36812000      13.90000000       0.07726200       0.14733500      -0.02745700
C        4.64892000       2.14723000      13.90000000      -0.16899600      -0.01284400      -0.02746300
C        0.00000000       0.00000000      10.10000000      -0.07141100      -0.15535400       0.02837700
C       -0.46487000       2.41565000      10.10000000      -0.17898900      -0.02862200      -0.02634100
C       -0.92980000       4.83129000      10.10000000      -0.10826400       0.11647700       0.02744800
C        1.85958000       1.61041000      10.10000000       0.13946900      -0.17328400      -0.02626000
C        1.39467000       4.02611000      10.10000000       0.05423700       0.20014000      -0.02639700
C        4.18405000       0.80523000      10.10000000       0.00510700       0.01990200      -0.01396900
C        3.71912000       3.22088000      10.10000000       0.14469200       0.01273400       0.02747500
C       -2.32448000       4.56294000      10.10000000       0.00746300       0.00909500      -0.01396400
C        0.46490000       1.34206000      10.10000000      -0.07972300      -0.18647600      -0.02633000
C       -0.00003000       3.75770000      10.10000000      -0.12327800       0.15513300      -0.02538400
C        2.78935000       0.53682000      10.10000000       0.10565300      -0.13457000       0.02747300
C        2.32448000       2.95247000      10.10000000       0.19706600       0.03036100      -0.02612800
C        1.85954000       5.36812000      10.10000000       0.07726200       0.14733500       0.02745700
C        4.64892000       2.14723000      10.10000000      -0.16899600      -0.01284400       0.02746300
Li       0.92980000       2.68406000      12.00000000      -0.00057500      -0.00005200       0.00000000
29
Lattice="6.508500099 0.0 0.0 -3.25425005 5.636526426 0.0 0.0 0.0 24.0" Properties=species:S:1:pos:R:3:forces:R:3 stress="-0.007711933777831844 2.08029499165689e-05 -0.0 2.08029499165689e-05 -0.007699638004853853 -0.0 -0.0 -0.0 0.0047927737181471175" free_energy=-262.1590972 energy=-262.15854691 pbc="T T T"
C        0.00000000       0.00000000      13.89863000      -0.07116000      -0.15510900      -0.01144000
C       -0.46487000       2.41565000      13.90127000      -0.17892900      -0.02818900       0.01788100
C       -0.92980000       4.83129000      13.89868000      -0.10808300       0.11692500      -0.00920400
C        1.85958000       1.61041000      13.90127000       0.13934300      -0.17240800       0.01802900
C        1.39467000       4.02611000      13.90127000       0.05431600       0.19985100       0.01778700
C        4.18405000       0.80523000      13.90067000       0.00499000       0.02001000      -0.02086100
C        3.71912000       3.22088000      13.89867000       0.14506500       0.01312500      -0.00902300
C       -2.32448000       4.56294000      13.90067000       0.00759700       0.00971400      -0.02105800
C        0.46490000       1.34206000      13.90127000      -0.08447100      -0.18696400       0.01395100
C       -0.00003000       3.75770000      13.90122000      -0.12300300       0.15522600       0.02006900
C        2.78935000       0.53682000      13.89867000       0.10559800      -0.13414400      -0.00904500
C        2.32448000       2.95247000      13.90126000       0.19709200       0.03089500       0.01816800
C        1.85954000       5.36812000      13.89868000       0.08061600       0.14388400      -0.00520500
C        4.64892000       2.14723000      13.89868000      -0.16875400      -0.01294200      -0.00902700
C        0.00000000       0.00000000      10.10137000      -0.07116000      -0.15510900       0.01144000
C       -0.46487000       2.41565000      10.09873000      -0.17892900      -0.02818900      -0.01788100
C       -0.92980000       4.83129000      10.10132000      -0.10808300       0.11692500       0.00920400
C        1.85958000       1.61041000      10.09873000       0.13934300      -0.17240800      -0.01802900
C        1.39467000       4.02611000      10.09873000       0.05431600       0.19985100      -0.01778700
C        4.18405000       0.80523000      10.09933000       0.00499000       0.02001000       0.02086100
C        3.71912000       3.22088000      10.10133000       0.14506500       0.01312500       0.00902300
C       -2.32448000       4.56294000      10.09933000       0.00759700       0.00971400       0.02105800
C        0.46490000       1.34206000      10.09873000      -0.08447100      -0.18696400      -0.01395100
C       -0.00003000       3.75770000      10.09878000      -0.12300300       0.15522600      -0.02006900
C        2.78935000       0.53682000      10.10133000       0.10559800      -0.13414400       0.00904500
C        2.32448000       2.95247000      10.09874000       0.19709200       0.03089500      -0.01816800
C        1.85954000       5.36812000      10.10132000       0.08061600       0.14388400       0.00520500
C        4.64892000       2.14723000      10.10132000      -0.16875400      -0.01294200       0.00902700
Li       0.92978000       2.68405000      12.00000000      -0.00043600       0.00024800      -0.00000000
29
Lattice="6.508500099 0.0 0.0 -3.25425005 5.636526426 0.0 0.0 0.0 24.0" Properties=species:S:1:pos:R:3:forces:R:3 stress="-0.0077218827433785005 2.4522889355595323e-05 -0.0 2.4522889355595323e-05 -0.007700268397275567 -0.0 -0.0 -0.0 0.004760692361240077" free_energy=-262.15938006 energy=-262.15883168 pbc="T T T"
C        0.00000000       0.00000000      13.89804000      -0.07090600      -0.15473200      -0.01011800
C       -0.46487000       2.41565000      13.90220000      -0.17855000      -0.02767300       0.01546400
C       -0.92980000       4.83129000      13.89820000      -0.10786000       0.11729600      -0.00846200
C        1.85958000       1.61041000      13.90220000       0.13945800      -0.17180300       0.01472100
C        1.39467000       4.02611000      13.90220000       0.05455200       0.20008000       0.01784400
C        4.18405000       0.80523000      13.89959000       0.00545300       0.02066400      -0.01262000
C        3.71912000       3.22088000      13.89821000       0.14530000       0.01360000      -0.00869700
C       -2.32448000       4.56294000      13.89958000       0.00783400       0.01015600      -0.01278500
C        0.46490000       1.34206000      13.90200000      -0.08688900      -0.19181100       0.00772100
C       -0.00003000       3.75770000      13.90227000      -0.12264000       0.15549500       0.00505800
C        2.78935000       0.53682000      13.89820000       0.10728800      -0.13361200      -0.00716000
C        2.32448000       2.95247000      13.90220000       0.19647300       0.02996300       0.01414200
C        1.85954000       5.36812000      13.89840000       0.07979700       0.14329700      -0.00624300
C        4.64892000       2.14723000      13.89821000      -0.16922300      -0.01132200      -0.00716500
C        0.00000000       0.00000000      10.10196000      -0.07090600      -0.15473200       0.01011800
C       -0.46487000       2.41565000      10.09780000      -0.17855000      -0.02767300      -0.01546400
C       -0.92980000       4.83129000      10.10180000      -0.10786000       0.11729600       0.00846200
C        1.85958000       1.61041000      10.09780000       0.13945800      -0.17180300      -0.01472100
C        1.39467000       4.02611000      10.09780000       0.05455200       0.20008000      -0.01784400
C        4.18405000       0.80523000      10.10041000       0.00545300       0.02066400       0.01262000
C        3.71912000       3.22088000      10.10179000       0.14530000       0.01360000       0.00869700
C       -2.32448000       4.56294000      10.10042000       0.00783400       0.01015600       0.01278500
C        0.46490000       1.34206000      10.09800000      -0.08688900      -0.19181100      -0.00772100
C       -0.00003000       3.75770000      10.09773000      -0.12264000       0.15549500      -0.00505800
C        2.78935000       0.53682000      10.10180000       0.10728800      -0.13361200       0.00716000
C        2.32448000       2.95247000      10.09780000       0.19647300       0.02996300      -0.01414200
C        1.85954000       5.36812000      10.10160000       0.07979700       0.14329700       0.00624300
C        4.64892000       2.14723000      10.10179000      -0.16922300      -0.01132200       0.00716500
Li       0.92975000       2.68407000      12.00000000      -0.00017300       0.00080700       0.00000000
29
Lattice="6.508500099 0.0 0.0 -3.25425005 5.636526426 0.0 0.0 0.0 24.0" Properties=species:S:1:pos:R:3:forces:R:3 stress="-0.0077305584410634785 1.7538640643731956e-05 -0.0 1.7538640643731956e-05 -0.007714417898463944 -0.0 -0.0 -0.0 0.004758045961370703" free_energy=-262.15969498 energy=-262.15914964 pbc="T T T"
C        0.00000000       0.00000000      13.89677000      -0.07147600      -0.15604000      -0.00610300
C       -0.46487000       2.41565000      13.90415000      -0.17507600      -0.02435600      -0.00984000
C       -0.92980000       4.83129000      13.89714000      -0.10876300       0.11635100      -0.01018200
C        1.85958000       1.61041000      13.90407000       0.14488300      -0.17321300      -0.00467400
C        1.39467000       4.02611000      13.90441000       0.04823500       0.19985100      -0.00516700
C        4.18405000       0.80523000      13.89791000       0.00466700       0.01938400      -0.00568600
C        3.71912000       3.22088000      13.89712000       0.14452300       0.01267400      -0.00334200
C       -2.32448000       4.56294000      13.89788000       0.00546500       0.01871200      -0.00240000
C        0.46490000       1.34206000      13.90304000      -0.08748300      -0.19260600       0.01155400
C       -0.00003000       3.75770000      13.90310000      -0.12319900       0.15415300       0.01466500
C        2.78935000       0.53682000      13.89729000       0.10645500      -0.13453400      -0.00462700
C        2.32448000       2.95247000      13.90401000       0.19528600       0.02906800       0.00978500
C        1.85954000       5.36812000      13.89765000       0.08620300       0.14319000      -0.00077100
C        4.64892000       2.14723000      13.89729000      -0.16953800      -0.01251200      -0.00461700
C        0.00000000       0.00000000      10.10323000      -0.07147600      -0.15604000       0.00610300
C       -0.46487000       2.41565000      10.09585000      -0.17507600      -0.02435600       0.00984000
C       -0.92980000       4.83129000      10.10286000      -0.10876300       0.11635100       0.01018200
C        1.85958000       1.61041000      10.09593000       0.14488300      -0.17321300       0.00467400
C        1.39467000       4.02611000      10.09559000       0.04823500       0.19985100       0.00516700
C        4.18405000       0.80523000      10.10209000       0.00466700       0.01938400       0.00568600
C        3.71912000       3.22088000      10.10288000       0.14452300       0.01267400       0.00334200
C       -2.32448000       4.56294000      10.10212000       0.00546500       0.01871200       0.00240000
C        0.46490000       1.34206000      10.09696000      -0.08748300      -0.19260600      -0.01155400
C       -0.00003000       3.75770000      10.09690000      -0.12319900       0.15415300      -0.01466500
C        2.78935000       0.53682000      10.10271000       0.10645500      -0.13453400       0.00462700
C        2.32448000       2.95247000      10.09599000       0.19528600       0.02906800      -0.00978500
C        1.85954000       5.36812000      10.10235000       0.08620300       0.14319000       0.00077100
C        4.64892000       2.14723000      10.10271000      -0.16953800      -0.01251200       0.00461700
Li       0.92973000       2.68416000      12.00000000      -0.00036300      -0.00024200       0.00000000
29
Lattice="6.508500099 0.0 0.0 -3.25425005 5.636526426 0.0 0.0 0.0 24.0" Properties=species:S:1:pos:R:3:forces:R:3 stress="-0.0077314572183776065 1.7438776497717824e-05 -0.0 1.7438776497717824e-05 -0.007715185604086429 -0.0 -0.0 -0.0 0.00476551080628526" free_energy=-262.1597627 energy=-262.15921825 pbc="T T T"
C        0.00000000       0.00000000      13.89619000      -0.07141600      -0.15590500      -0.00118700
C       -0.46487000       2.41565000      13.90442000      -0.17507300      -0.02439500      -0.00617000
C       -0.92980000       4.83129000      13.89650000      -0.10885100       0.11642500      -0.00337400
C        1.85958000       1.61041000      13.90449000       0.14485700      -0.17317100      -0.00220700
C        1.39467000       4.02611000      13.90490000       0.04818300       0.19980500      -0.00195100
C        4.18405000       0.80523000      13.89722000       0.00467900       0.01937100      -0.00332700
C        3.71912000       3.22088000      13.89670000       0.14439400       0.01287900       0.00202300
C       -2.32448000       4.56294000      13.89728000       0.00548000       0.01872000      -0.00498500
C        0.46490000       1.34206000      13.90373000      -0.08751700      -0.19261800       0.00489200
C       -0.00003000       3.75770000      13.90385000      -0.12318100       0.15419700       0.00751200
C        2.78935000       0.53682000      13.89687000       0.10641500      -0.13485000      -0.00387400
C        2.32448000       2.95247000      13.90487000       0.19530300       0.02895200       0.00367500
C        1.85954000       5.36812000      13.89740000       0.08615500       0.14320500      -0.00344600
C        4.64892000       2.14723000      13.89687000      -0.16931100      -0.01252100      -0.00376100
C        0.00000000       0.00000000      10.10381000      -0.07141600      -0.15590500       0.00118700
C       -0.46487000       2.41565000      10.09558000      -0.17507300      -0.02439500       0.00617000
C       -0.92980000       4.83129000      10.10350000      -0.10885100       0.11642500       0.00337400
C        1.85958000       1.61041000      10.09551000       0.14485700      -0.17317100       0.00220700
C        1.39467000       4.02611000      10.09510000       0.04818300       0.19980500       0.00195100
C        4.18405000       0.80523000      10.10278000       0.00467900       0.01937100       0.00332700
C        3.71912000       3.22088000      10.10330000       0.14439400       0.01287900      -0.00202300
C       -2.32448000       4.56294000      10.10272000       0.00548000       0.01872000       0.00498500
C        0.46490000       1.34206000      10.09627000      -0.08751700      -0.19261800      -0.00489200
C       -0.00003000       3.75770000      10.09615000      -0.12318100       0.15419700      -0.00751200
C        2.78935000       0.53682000      10.10313000       0.10641500      -0.13485000       0.00387400
C        2.32448000       2.95247000      10.09513000       0.19530300       0.02895200      -0.00367500
C        1.85954000       5.36812000      10.10260000       0.08615500       0.14320500       0.00344600
C        4.64892000       2.14723000      10.10313000      -0.16931100      -0.01252100       0.00376100
Li       0.92971000       2.68418000      12.00000000      -0.00023600      -0.00018500      -0.00000000
