29
Lattice="6.508500099 0.0 0.0 -3.25425005 5.636526426 0.0 0.0 0.0 24.0" Properties=species:S:1:pos:R:3:forces:R:3 stress="-0.007843829348680009 1.746998404334724e-05 -0.0 1.746998404334724e-05 -0.007836788926386012 -0.0 -0.0 -0.0 -0.0037032621266420616" free_energy=-261.72689852 energy=-261.72631209 pbc="T T T"
C        0.00000000       0.00000000      13.65000000      -0.08094700      -0.15492800       0.02851700
C       -0.46487000       2.41565000      13.65000000      -0.30426300      -0.04984400       0.28830700
C       -0.92980000       4.83129000      13.65000000      -0.10002300       0.13487400       0.03809600
C        1.85958000       1.61041000      13.65000000       0.20407800      -0.25156300       0.29000200
C        1.39467000       4.02611000      13.65000000       0.10279500       0.30133300       0.28851200
C        4.18405000       0.80523000      13.65000000      -0.00088600       0.00573600       0.08327700
C        3.71912000       3.22088000      13.65000000       0.16444700       0.00607500       0.03938200
C       -2.32448000       4.56294000      13.65000000       0.00969000       0.01513300       0.08985400
C        0.46490000       1.34206000      13.65000000      -0.12758400      -0.29628700       0.29639100
C       -0.00003000       3.75770000      13.65000000      -0.19707600       0.24542900       0.29341000
C        2.78935000       0.53682000      13.65000000       0.07242800      -0.14535800       0.03974500
C        2.32448000       2.95247000      13.65000000       0.32390900       0.07480300       0.29038700
C        1.85954000       5.36812000      13.65000000       0.09096000       0.14202800       0.04595000
C        4.64892000       2.14723000      13.65000000      -0.15699100      -0.02723500       0.03974300
C        0.00000000       0.00000000      10.35000000      -0.08094700      -0.15492800      -0.02851700
C       -0.46487000       2.41565000      10.35000000      -0.30426300      -0.04984400      -0.28830700
C       -0.92980000       4.83129000      10.35000000      -0.10002300       0.13487400      -0.03809600
C        1.85958000       1.61041000      10.35000000       0.20407800      -0.25156300      -0.29000200
C        1.39467000       4.02611000      10.35000000       0.10279500       0.30133300      -0.28851200
C        4.18405000       0.80523000      10.35000000      -0.00088600       0.00573600      -0.08327700
C        3.71912000       3.22088000      10.35000000       0.16444700       0.00607500      -0.03938200
C       -2.32448000       4.56294000      10.35000000       0.00969000       0.01513300      -0.08985400
C        0.46490000       1.34206000      10.35000000      -0.12758400      -0.29628700      -0.29639100
C       -0.00003000       3.75770000      10.35000000      -0.19707600       0.24542900      -0.29341000
C        2.78935000       0.53682000      10.35000000       0.07242800      -0.14535800      -0.03974500
C        2.32448000       2.95247000      10.35000000       0.32390900       0.07480300      -0.29038700
C        1.85954000       5.36812000      10.35000000       0.09096000       0.14202800      -0.04595000
C        4.64892000       2.14723000      10.35000000      -0.15699100      -0.02723500      -0.03974300
Li       0.92980000       2.68406000      12.00000000      -0.00107100      -0.00039000      -0.00000000
29
Lattice="6.508500099 0.0 0.0 -3.25425005 5.636526426 0.0 0.0 0.0 24.0" Properties=species:S:1:pos:R:3:forces:R:3 stress="-0.007864438811813675 1.674596898474478e-05 -0.0 1.674596898474478e-05 -0.007843142782676163 -0.0 -0.0 -0.0 -0.003182788922143783" free_energy=-261.77320582 energy=-261.77256254 pbc="T T T"
C        0.00000000       0.00000000      13.65138000      -0.08193900      -0.15645300       0.09190300
C       -0.46487000       2.41565000      13.66391000      -0.29490800      -0.04723200       0.24633800
C       -0.92980000       4.83129000      13.65184000      -0.10263100       0.13793700       0.09353300
C        1.85958000       1.61041000      13.66399000       0.19883100      -0.24293900       0.24444600
C        1.39467000       4.02611000      13.66392000       0.09848300       0.29290400       0.24623200
C        4.18405000       0.80523000      13.65402000      -0.00177800       0.00451100       0.03447700
C        3.71912000       3.22088000      13.65190000       0.16673500       0.00809900       0.09285600
C       -2.32448000       4.56294000      13.65433000       0.01023800       0.01148500       0.02599500
C        0.46490000       1.34206000      13.66430000      -0.11832800      -0.28421400       0.22606400
C       -0.00003000       3.75770000      13.66415000      -0.19109800       0.23847500       0.22541500
C        2.78935000       0.53682000      13.65192000       0.07660000      -0.14974200       0.07602600
C        2.32448000       2.95247000      13.66401000       0.30971200       0.06338900       0.22494600
C        1.85954000       5.36812000      13.65222000       0.08933900       0.14662500       0.08368000
C        4.64892000       2.14723000      13.65192000      -0.15845200      -0.02311900       0.07591200
C        0.00000000       0.00000000      10.34862000      -0.08193900      -0.15645300      -0.09190300
C       -0.46487000       2.41565000      10.33609000      -0.29490800      -0.04723200      -0.24633800
C       -0.92980000       4.83129000      10.34816000      -0.10263100       0.13793700      -0.09353300
C        1.85958000       1.61041000      10.33601000       0.19883100      -0.24293900      -0.24444600
C        1.39467000       4.02611000      10.33608000       0.09848300       0.29290400      -0.24623200
C        4.18405000       0.80523000      10.34598000      -0.00177800       0.00451100      -0.03447700
C        3.71912000       3.22088000      10.34810000       0.16673500       0.00809900      -0.09285600
C       -2.32448000       4.56294000      10.34567000       0.01023800       0.01148500      -0.02599500
C        0.46490000       1.34206000      10.33570000      -0.11832800      -0.28421400      -0.22606400
C       -0.00003000       3.75770000      10.33585000      -0.19109800       0.23847500      -0.22541500
C        2.78935000       0.53682000      10.34808000       0.07660000      -0.14974200      -0.07602600
C        2.32448000       2.95247000      10.33599000       0.30971200       0.06338900      -0.22494600
C        1.85954000       5.36812000      10.34778000       0.08933900       0.14662500      -0.08368000
C        4.64892000       2.14723000      10.34808000      -0.15845200      -0.02311900      -0.07591200
Li       0.92975000       2.68404000      12.00000000      -0.00160800       0.00055200       0.00000000
29
Lattice="6.508500099 0.0 0.0 -3.25425005 5.636526426 0.0 0.0 0.0 24.0" Properties=species:S:1:pos:R:3:forces:R:3 stress="-0.007685095288590546 2.0434700878141787e-05 -0.0 2.0434700878141787e-05 -0.007712695241945201 -0.0 -0.0 -0.0 -0.0019265915879228888" free_energy=-261.84752495 energy=-261.84657225 pbc="T T T"
C        0.00000000       0.00000000      13.66209000      -0.08041200      -0.15567900       0.07395300
C       -0.46487000       2.41565000      13.69262000      -0.27618800      -0.03697100       0.11133600
C       -0.92980000       4.83129000      13.66274000      -0.10189300       0.13794300       0.08498900
C        1.85958000       1.61041000      13.69248000       0.20573300      -0.23727000       0.11239500
C        1.39467000       4.02611000      13.69261000       0.08471700       0.28344200       0.11607400
C        4.18405000       0.80523000      13.65804000      -0.00281800       0.00854400       0.08573000
C        3.71912000       3.22088000      13.66272000       0.16610100       0.00791000       0.08434200
C       -2.32448000       4.56294000      13.65736000       0.01114900       0.01192900       0.11723600
C        0.46490000       1.34206000      13.69064000      -0.11823500      -0.28151500       0.17835400
C       -0.00003000       3.75770000      13.69042000      -0.18318700       0.22901100       0.17891300
C        2.78935000       0.53682000      13.66078000       0.08497600      -0.14418300       0.12168500
C        2.32448000       2.95247000      13.69022000       0.28876000       0.04792600       0.17642500
C        1.85954000       5.36812000      13.66197000       0.08341600       0.14414300       0.12101700
C        4.64892000       2.14723000      13.66076000      -0.16170600      -0.01571200       0.12266600
C        0.00000000       0.00000000      10.33791000      -0.08041200      -0.15567900      -0.07395300
C       -0.46487000       2.41565000      10.30738000      -0.27618800      -0.03697100      -0.11133600
C       -0.92980000       4.83129000      10.33726000      -0.10189300       0.13794300      -0.08498900
C        1.85958000       1.61041000      10.30752000       0.20573300      -0.23727000      -0.11239500
C        1.39467000       4.02611000      10.30739000       0.08471700       0.28344200      -0.11607400
C        4.18405000       0.80523000      10.34196000      -0.00281800       0.00854400      -0.08573000
C        3.71912000       3.22088000      10.33728000       0.16610100       0.00791000      -0.08434200
C       -2.32448000       4.56294000      10.34264000       0.01114900       0.01192900      -0.11723600
C        0.46490000       1.34206000      10.30936000      -0.11823500      -0.28151500      -0.17835400
C       -0.00003000       3.75770000      10.30958000      -0.18318700       0.22901100      -0.17891300
C        2.78935000       0.53682000      10.33922000       0.08497600      -0.14418300      -0.12168500
C        2.32448000       2.95247000      10.30978000       0.28876000       0.04792600      -0.17642500
C        1.85954000       5.36812000      10.33803000       0.08341600       0.14414300      -0.12101700
C        4.64892000       2.14723000      10.33924000      -0.16170600      -0.01571200      -0.12266600
Li       0.92957000       2.68410000      12.00000000      -0.00082300       0.00096100      -0.00000000
29
Lattice="6.508500099 0.0 0.0 -3.25425005 5.636526426 0.0 0.0 0.0 24.0" Properties=species:S:1:pos:R:3:forces:R:3 stress="-0.007575906327942344 2.158938006643019e-05 -0.0 2.158938006643019e-05 -0.007578733731576369 -0.0 -0.0 -0.0 -0.0010669048454511065" free_energy=-261.89877559 energy=-261.89720053 pbc="T T T"
C        0.00000000       0.00000000      13.67227000      -0.07755300      -0.15031700       0.11509900
C       -0.46487000       2.41565000      13.71421000      -0.27453500      -0.04115100       0.09200300
C       -0.92980000       4.83129000      13.67374000      -0.09880900       0.13516700       0.12177500
C        1.85958000       1.61041000      13.71403000       0.19637900      -0.22874100       0.08704800
C        1.39467000       4.02611000      13.71451000       0.08560400       0.27389300       0.09371900
C        4.18405000       0.80523000      13.66566000      -0.00204100       0.00618500       0.14152700
C        3.71912000       3.22088000      13.67364000       0.16073700       0.00580300       0.12534900
C       -2.32448000       4.56294000      13.66656000       0.00881800       0.00727300       0.11238200
C        0.46490000       1.34206000      13.71546000      -0.10896000      -0.27874800       0.06081700
C       -0.00003000       3.75770000      13.71524000      -0.18037700       0.22326800       0.08517500
C        2.78935000       0.53682000      13.67317000       0.09677900      -0.13816700       0.10113000
C        2.32448000       2.95247000      13.71484000       0.27743600       0.04956900       0.08198400
C        1.85954000       5.36812000      13.67476000       0.08241400       0.14131800       0.09203900
C        4.64892000       2.14723000      13.67321000      -0.16532800      -0.00534800       0.09981000
C        0.00000000       0.00000000      10.32773000      -0.07755300      -0.15031700      -0.11509900
C       -0.46487000       2.41565000      10.28579000      -0.27453500      -0.04115100      -0.09200300
C       -0.92980000       4.83129000      10.32626000      -0.09880900       0.13516700      -0.12177500
C        1.85958000       1.61041000      10.28597000       0.19637900      -0.22874100      -0.08704800
C        1.39467000       4.02611000      10.28549000       0.08560400       0.27389300      -0.09371900
C        4.18405000       0.80523000      10.33434000      -0.00204100       0.00618500      -0.14152700
C        3.71912000       3.22088000      10.32636000       0.16073700       0.00580300      -0.12534900
C       -2.32448000       4.56294000      10.33344000       0.00881800       0.00727300      -0.11238200
C        0.46490000       1.34206000      10.28454000      -0.10896000      -0.27874800      -0.06081700
C       -0.00003000       3.75770000      10.28476000      -0.18037700       0.22326800      -0.08517500
C        2.78935000       0.53682000      10.32683000       0.09677900      -0.13816700      -0.10113000
C        2.32448000       2.95247000      10.28516000       0.27743600       0.04956900      -0.08198400
C        1.85954000       5.36812000      10.32524000       0.08241400       0.14131800      -0.09203900
C        4.64892000       2.14723000      10.32679000      -0.16532800      -0.00534800      -0.09981000
Li       0.92942000       2.68420000      12.00000000      -0.00112600      -0.00000800       0.00000000
29
Lattice="6.508500099 0.0 0.0 -3.25425005 5.636526426 0.0 0.0 0.0 24.0" Properties=species:S:1:pos:R:3:forces:R:3 stress="-0.007522017138149468 4.269192242104149e-06 -0.0 4.269192242104149e-06 -0.007512361523531726 -0.0 -0.0 -0.0 -0.0005244615288297185" free_energy=-261.92920317 energy=-261.92722107 pbc="T T T"
C        0.00000000       0.00000000      13.68275000      -0.07594700      -0.14897600       0.10776000
C       -0.46487000       2.41565000      13.72808000      -0.27451700      -0.04392900       0.05353800
C       -0.92980000       4.83129000      13.68482000      -0.09414300       0.12280700       0.10691600
C        1.85958000       1.61041000      13.72757000       0.18401400      -0.22299200       0.05260200
C        1.39467000       4.02611000      13.72855000       0.08934000       0.26828000       0.05846200
C        4.18405000       0.80523000      13.67631000      -0.00106600       0.00277300       0.11711500
C        3.71912000       3.22088000      13.68491000       0.15210200      -0.00103100       0.10458400
C       -2.32448000       4.56294000      13.67569000      -0.00114200       0.00950200       0.13007200
C        0.46490000       1.34206000      13.72787000      -0.10799000      -0.26258000       0.04335000
C       -0.00003000       3.75770000      13.72910000      -0.17708300       0.21966300       0.06056200
C        2.78935000       0.53682000      13.68306000       0.09973700      -0.14289300       0.12715600
C        2.32448000       2.95247000      13.72847000       0.27743600       0.04860700       0.07041700
C        1.85954000       5.36812000      13.68431000       0.08976200       0.15002700       0.10895800
C        4.64892000       2.14723000      13.68304000      -0.16023300      -0.00046200       0.13051000
C        0.00000000       0.00000000      10.31725000      -0.07594700      -0.14897600      -0.10776000
C       -0.46487000       2.41565000      10.27192000      -0.27451700      -0.04392900      -0.05353800
C       -0.92980000       4.83129000      10.31518000      -0.09414300       0.12280700      -0.10691600
C        1.85958000       1.61041000      10.27243000       0.18401400      -0.22299200      -0.05260200
C        1.39467000       4.02611000      10.27145000       0.08934000       0.26828000      -0.05846200
C        4.18405000       0.80523000      10.32369000      -0.00106600       0.00277300      -0.11711500
C        3.71912000       3.22088000      10.31509000       0.15210200      -0.00103100      -0.10458400
C       -2.32448000       4.56294000      10.32431000      -0.00114200       0.00950200      -0.13007200
C        0.46490000       1.34206000      10.27213000      -0.10799000      -0.26258000      -0.04335000
C       -0.00003000       3.75770000      10.27090000      -0.17708300       0.21966300      -0.06056200
C        2.78935000       0.53682000      10.31694000       0.09973700      -0.14289300      -0.12715600
C        2.32448000       2.95247000      10.27153000       0.27743600       0.04860700      -0.07041700
C        1.85954000       5.36812000      10.31569000       0.08976200       0.15002700      -0.10895800
C        4.64892000       2.14723000      10.31696000      -0.16023300      -0.00046200      -0.13051000
Li       0.92929000       2.68423000      12.00000000      -0.00053900       0.00240500      -0.00000000
29
Lattice="6.508500099 0.0 0.0 -3.25425005 5.636526426 0.0 0.0 0.0 24.0" Properties=species:S:1:pos:R:3:forces:R:3 stress="-0.007573946494076817 1.069170513263802e-05 -0.0 1.069170513263802e-05 -0.00752623015680944 -0.0 -0.0 -0.0 2.0391010314260603e-05" free_energy=-261.96164017 energy=-261.95941721 pbc="T T T"
C        0.00000000       0.00000000      13.69582000      -0.07390100      -0.15099300       0.11023600
C       -0.46487000       2.41565000      13.74144000      -0.26395300      -0.04587700       0.03970300
C       -0.92980000       4.83129000      13.69812000      -0.09960300       0.11346600       0.10298800
C        1.85958000       1.61041000      13.74073000       0.18279700      -0.22097100       0.04520900
C        1.39467000       4.02611000      13.74234000       0.08795100       0.26232600       0.04294800
C        4.18405000       0.80523000      13.68909000      -0.00540000       0.01766300       0.12336400
C        3.71912000       3.22088000      13.69807000       0.14112300       0.00470200       0.10844800
C       -2.32448000       4.56294000      13.68904000       0.00389400       0.01677900       0.12386300
C        0.46490000       1.34206000      13.74016000      -0.10901400      -0.25824700       0.03849000
C       -0.00003000       3.75770000      13.74304000      -0.17219200       0.21222600       0.05113800
C        2.78935000       0.53682000      13.69741000       0.10172000      -0.13583300       0.10458900
C        2.32448000       2.95247000      13.74303000       0.28028000       0.05669000       0.03899800
C        1.85954000       5.36812000      13.69739000       0.09079000       0.13471800       0.10983800
C        4.64892000       2.14723000      13.69762000      -0.16551700      -0.00773800       0.10501600
C        0.00000000       0.00000000      10.30418000      -0.07390100      -0.15099300      -0.11023600
C       -0.46487000       2.41565000      10.25856000      -0.26395300      -0.04587700      -0.03970300
C       -0.92980000       4.83129000      10.30188000      -0.09960300       0.11346600      -0.10298800
C        1.85958000       1.61041000      10.25927000       0.18279700      -0.22097100      -0.04520900
C        1.39467000       4.02611000      10.25766000       0.08795100       0.26232600      -0.04294800
C        4.18405000       0.80523000      10.31091000      -0.00540000       0.01766300      -0.12336400
C        3.71912000       3.22088000      10.30193000       0.14112300       0.00470200      -0.10844800
C       -2.32448000       4.56294000      10.31096000       0.00389400       0.01677900      -0.12386300
C        0.46490000       1.34206000      10.25984000      -0.10901400      -0.25824700      -0.03849000
C       -0.00003000       3.75770000      10.25696000      -0.17219200       0.21222600      -0.05113800
C        2.78935000       0.53682000      10.30259000       0.10172000      -0.13583300      -0.10458900
C        2.32448000       2.95247000      10.25697000       0.28028000       0.05669000      -0.03899800
C        1.85954000       5.36812000      10.30261000       0.09079000       0.13471800      -0.10983800
C        4.64892000       2.14723000      10.30238000      -0.16551700      -0.00773800      -0.10501600
Li       0.92918000       2.68443000      12.00000000       0.00205000       0.00217900      -0.00000000
29
Lattice="6.508500099 0.0 0.0 -3.25425005 5.636526426 0.0 0.0 0.0 24.0" Properties=species:S:1:pos:R:3:forces:R:3 stress="-0.00767509639097088 -1.2570399379528882e-05 -0.0 -1.2570399379528882e-05 -0.007710960102408205 -0.0 -0.0 -0.0 0.0010772595090909468" free_energy=-262.04446897 energy=-262.04236248 pbc="T T T"
C        0.00000000       0.00000000      13.73843000      -0.07400300      -0.15343500       0.08995100
C       -0.46487000       2.41565000      13.77922000      -0.24976300      -0.02955300       0.03046300
C       -0.92980000       4.83129000      13.74012000      -0.09942800       0.12068800       0.09312400
C        1.85958000       1.61041000      13.77912000       0.17747800      -0.19550000       0.01763700
C        1.39467000       4.02611000      13.78128000       0.07100700       0.22991500       0.03253400
C        4.18405000       0.80523000      13.73200000      -0.00010800       0.00610900       0.09914400
C        3.71912000       3.22088000      13.74102000       0.15294400       0.00640900       0.07493900
C       -2.32448000       4.56294000      13.73189000       0.00898800       0.00591300       0.10017600
C        0.46490000       1.34206000      13.77610000      -0.08996900      -0.23503000       0.04729800
C       -0.00003000       3.75770000      13.78363000      -0.16225300       0.19670700      -0.02223400
C        2.78935000       0.53682000      13.73994000       0.08420900      -0.13526300       0.08456200
C        2.32448000       2.95247000      13.78178000       0.26267300       0.07194200       0.00702300
C        1.85954000       5.36812000      13.73977000       0.07490600       0.13288000       0.07589700
C        4.64892000       2.14723000      13.74041000      -0.15687200      -0.02430700       0.08223700
C        0.00000000       0.00000000      10.26157000      -0.07400300      -0.15343500      -0.08995100
C       -0.46487000       2.41565000      10.22078000      -0.24976300      -0.02955300      -0.03046300
C       -0.92980000       4.83129000      10.25988000      -0.09942800       0.12068800      -0.09312400
C        1.85958000       1.61041000      10.22088000       0.17747800      -0.19550000      -0.01763700
C        1.39467000       4.02611000      10.21872000       0.07100700       0.22991500      -0.03253400
C        4.18405000       0.80523000      10.26800000      -0.00010800       0.00610900      -0.09914400
C        3.71912000       3.22088000      10.25898000       0.15294400       0.00640900      -0.07493900
C       -2.32448000       4.56294000      10.26811000       0.00898800       0.00591300      -0.10017600
C        0.46490000       1.34206000      10.22390000      -0.08996900      -0.23503000      -0.04729800
C       -0.00003000       3.75770000      10.21637000      -0.16225300       0.19670700       0.02223400
C        2.78935000       0.53682000      10.26006000       0.08420900      -0.13526300      -0.08456200
C        2.32448000       2.95247000      10.21822000       0.26267300       0.07194200      -0.00702300
C        1.85954000       5.36812000      10.26023000       0.07490600       0.13288000      -0.07589700
C        4.64892000       2.14723000      10.25959000      -0.15687200      -0.02430700      -0.08223700
Li       0.92932000       2.68507000      12.00000000       0.00038300       0.00504800      -0.00000000
29
Lattice="6.508500099 0.0 0.0 -3.25425005 5.636526426 0.0 0.0 0.0 24.0" Properties=species:S:1:pos:R:3:forces:R:3 stress="-0.007837313213152588 3.6088405765857e-05 -0.0 3.6088405765857e-05 -0.007825185960920996 -0.0 -0.0 -0.0 0.002394829602546651" free_energy=-262.11333322 energy=-262.11115002 pbc="T T T"
C        0.00000000       0.00000000      13.79507000      -0.07153700      -0.15464200       0.01776900
C       -0.46487000       2.41565000      13.82759000      -0.22441400      -0.02640200      -0.00800400
C       -0.92980000       4.83129000      13.79679000      -0.09342800       0.13050300       0.04864800
C        1.85958000       1.61041000      13.82652000       0.16328300      -0.17733400       0.00338200
C        1.39467000       4.02611000      13.83115000       0.06670500       0.21484200      -0.04072000
C        4.18405000       0.80523000      13.78924000      -0.01730500       0.00582400       0.09084600
C        3.71912000       3.22088000      13.79657000       0.15897900       0.00809800       0.05939000
C       -2.32448000       4.56294000      13.78912000       0.00985000      -0.00767400       0.08576100
C        0.46490000       1.34206000      13.82408000      -0.08010400      -0.21002800       0.03341100
C       -0.00003000       3.75770000      13.82910000      -0.14403000       0.17826000      -0.00708400
C        2.78935000       0.53682000      13.79623000       0.07600800      -0.14016000       0.04645800
C        2.32448000       2.95247000      13.82887000       0.24405400       0.06368900      -0.00855100
C        1.85954000       5.36812000      13.79462000       0.06160800       0.14338200       0.08161100
C        4.64892000       2.14723000      13.79676000      -0.15083600      -0.02859400       0.03826100
C        0.00000000       0.00000000      10.20493000      -0.07153700      -0.15464200      -0.01776900
C       -0.46487000       2.41565000      10.17241000      -0.22441400      -0.02640200       0.00800400
C       -0.92980000       4.83129000      10.20321000      -0.09342800       0.13050300      -0.04864800
C        1.85958000       1.61041000      10.17348000       0.16328300      -0.17733400      -0.00338200
C        1.39467000       4.02611000      10.16885000       0.06670500       0.21484200       0.04072000
C        4.18405000       0.80523000      10.21076000      -0.01730500       0.00582400      -0.09084600
C        3.71912000       3.22088000      10.20343000       0.15897900       0.00809800      -0.05939000
C       -2.32448000       4.56294000      10.21088000       0.00985000      -0.00767400      -0.08576100
C        0.46490000       1.34206000      10.17592000      -0.08010400      -0.21002800      -0.03341100
C       -0.00003000       3.75770000      10.17090000      -0.14403000       0.17826000       0.00708400
C        2.78935000       0.53682000      10.20377000       0.07600800      -0.14016000      -0.04645800
C        2.32448000       2.95247000      10.17113000       0.24405400       0.06368900       0.00855100
C        1.85954000       5.36812000      10.20538000       0.06160800       0.14338200      -0.08161100
C        4.64892000       2.14723000      10.20324000      -0.15083600      -0.02859400      -0.03826100
Li       0.92941000       2.68629000      12.00000000       0.00233400       0.00047200      -0.00000000
29
Lattice="6.508500099 0.0 0.0 -3.25425005 5.636526426 0.0 0.0 0.0 24.0" Properties=species:S:1:pos:R:3:forces:R:3 stress="-0.007802560490339667 2.628923643822028e-05 -0.0 2.628923643822028e-05 -0.007737723693539994 -0.0 -0.0 -0.0 0.0028829655482637286" free_energy=-262.13078452 energy=-262.1289548 pbc="T T T"
C        0.00000000       0.00000000      13.81438000      -0.07139600      -0.15200500       0.07886900
C       -0.46487000       2.41565000      13.84335000      -0.20883000      -0.02818500      -0.00681700
C       -0.92980000       4.83129000      13.81806000      -0.08682100       0.12746100       0.03179200
C        1.85958000       1.61041000      13.84290000       0.15357100      -0.16982200       0.00304000
C        1.39467000       4.02611000      13.84526000       0.06324400       0.21461800      -0.01272400
C        4.18405000       0.80523000      13.81334000      -0.01642100       0.00655300       0.04406500
C        3.71912000       3.22088000      13.81845000       0.16429700      -0.00188000       0.02950000
C       -2.32448000       4.56294000      13.81288000       0.00930700      -0.00788700       0.05143100
C        0.46490000       1.34206000      13.84210000      -0.09007100      -0.20486500      -0.00358300
C       -0.00003000       3.75770000      13.84479000      -0.13853700       0.17409400      -0.00281300
C        2.78935000       0.53682000      13.81737000       0.07166300      -0.14142200       0.03635500
C        2.32448000       2.95247000      13.84454000       0.23112000       0.06103100      -0.00877700
C        1.85954000       5.36812000      13.81768000       0.06272400       0.15805600       0.03645000
C        4.64892000       2.14723000      13.81743000      -0.14403300      -0.03489000       0.03833000
C        0.00000000       0.00000000      10.18562000      -0.07139600      -0.15200500      -0.07886900
C       -0.46487000       2.41565000      10.15665000      -0.20883000      -0.02818500       0.00681700
C       -0.92980000       4.83129000      10.18194000      -0.08682100       0.12746100      -0.03179200
C        1.85958000       1.61041000      10.15710000       0.15357100      -0.16982200      -0.00304000
C        1.39467000       4.02611000      10.15474000       0.06324400       0.21461800       0.01272400
C        4.18405000       0.80523000      10.18666000      -0.01642100       0.00655300      -0.04406500
C        3.71912000       3.22088000      10.18155000       0.16429700      -0.00188000      -0.02950000
C       -2.32448000       4.56294000      10.18712000       0.00930700      -0.00788700      -0.05143100
C        0.46490000       1.34206000      10.15790000      -0.09007100      -0.20486500       0.00358300
C       -0.00003000       3.75770000      10.15521000      -0.13853700       0.17409400       0.00281300
C        2.78935000       0.53682000      10.18263000       0.07166300      -0.14142200      -0.03635500
C        2.32448000       2.95247000      10.15546000       0.23112000       0.06103100       0.00877700