29
Lattice="6.508500099 0.0 0.0 -3.25425005 5.636526426 0.0 0.0 0.0 24.0" Properties=species:S:1:pos:R:3:forces:R:3 stress="-0.008123923312213144 1.9005395288314524e-05 -0.0 1.9005395288314524e-05 -0.00811738221064922 -0.0 -0.0 -0.0 0.005958731313425991" free_energy=-262.11784703 energy=-262.11736668 pbc="T T T"
C        0.00000000       0.00000000      14.00000000      -0.06647100      -0.14978200      -0.03738600
C       -0.46487000       2.41565000      14.00000000      -0.17937900      -0.02439400      -0.03372300
C       -0.92980000       4.83129000      14.00000000      -0.09516300       0.12677200      -0.03619300
C        1.85958000       1.61041000      14.00000000       0.11783900      -0.14465400      -0.03365900
C        1.39467000       4.02611000      14.00000000       0.05680300       0.16323300      -0.03357400
C        4.18405000       0.80523000      14.00000000      -0.00201200       0.00564900       0.00252600
C        3.71912000       3.22088000      14.00000000       0.15326500       0.01518500      -0.03620500
C       -2.32448000       4.56294000      14.00000000       0.01199600      -0.00025100       0.00250600
C        0.46490000       1.34206000      14.00000000      -0.06713400      -0.15865000      -0.03383300
C       -0.00003000       3.75770000      14.00000000      -0.11036100       0.13963700      -0.03485200
C        2.78935000       0.53682000      14.00000000       0.07766900      -0.13745100      -0.03619600
C        2.32448000       2.95247000      14.00000000       0.18147900       0.05383500      -0.03376800
C        1.85954000       5.36812000      14.00000000       0.06201000       0.14249800      -0.03622700
C        4.64892000       2.14723000      14.00000000      -0.14031400      -0.03162100      -0.03618900
C        0.00000000       0.00000000      10.00000000      -0.06647100      -0.14978200       0.03738600
C       -0.46487000       2.41565000      10.00000000      -0.17937900      -0.02439400       0.03372300
C       -0.92980000       4.83129000      10.00000000      -0.09516300       0.12677200       0.03619300
C        1.85958000       1.61041000      10.00000000       0.11783900      -0.14465400       0.03365900
C        1.39467000       4.02611000      10.00000000       0.05680300       0.16323300       0.03357400
C        4.18405000       0.80523000      10.00000000      -0.00201200       0.00564900      -0.00252600
C        3.71912000       3.22088000      10.00000000       0.15326500       0.01518500       0.03620500
C       -2.32448000       4.56294000      10.00000000       0.01199600      -0.00025100      -0.00250600
C        0.46490000       1.34206000      10.00000000      -0.06713400      -0.15865000       0.03383300
C       -0.00003000       3.75770000      10.00000000      -0.11036100       0.13963700       0.03485200
C        2.78935000       0.53682000      10.00000000       0.07766900      -0.13745100       0.03619600
C        2.32448000       2.95247000      10.00000000       0.18147900       0.05383500       0.03376800
C        1.85954000       5.36812000      10.00000000       0.06201000       0.14249800       0.03622700
C        4.64892000       2.14723000      10.00000000      -0.14031400      -0.03162100       0.03618900
Li       0.92980000       2.68406000      12.00000000      -0.00045200      -0.00001200      -0.00000000
29
Lattice="6.508500099 0.0 0.0 -3.25425005 5.636526426 0.0 0.0 0.0 24.0" Properties=species:S:1:pos:R:3:forces:R:3 stress="-0.008078254189939058 1.6820867094255383e-05 -0.0 1.6820867094255383e-05 -0.00805960456067092 -0.0 -0.0 -0.0 0.006001772760358083" free_energy=-262.11915937 energy=-262.11867898 pbc="T T T"
C        0.00000000       0.00000000      13.99820000      -0.06648100      -0.14983400      -0.02885500
C       -0.46487000       2.41565000      13.99837000      -0.17859400      -0.02509400      -0.03358700
C       -0.92980000       4.83129000      13.99825000      -0.09639100       0.12614300      -0.02500900
C        1.85958000       1.61041000      13.99838000       0.11896400      -0.14388200      -0.03326000
C        1.39467000       4.02611000      13.99838000       0.05684700       0.16496600      -0.03351500
C        4.18405000       0.80523000      14.00012000      -0.00202100       0.00568200      -0.02567000
C        3.71912000       3.22088000      13.99825000       0.15375100       0.01400100      -0.02467600
C       -2.32448000       4.56294000      14.00012000       0.01198200      -0.00021500      -0.02601200
C        0.46490000       1.34206000      13.99837000      -0.06726700      -0.15896300      -0.03730100
C       -0.00003000       3.75770000      13.99832000      -0.11065200       0.13994300      -0.02479800
C        2.78935000       0.53682000      13.99825000       0.07838300      -0.13881700      -0.02418300
C        2.32448000       2.95247000      13.99837000       0.18030900       0.05407300      -0.03273700
C        1.85954000       5.36812000      13.99825000       0.06095100       0.14236300      -0.02651700
C        4.64892000       2.14723000      13.99825000      -0.13955200      -0.03037100      -0.02420300
C        0.00000000       0.00000000      10.00180000      -0.06648100      -0.14983400       0.02885500
C       -0.46487000       2.41565000      10.00163000      -0.17859400      -0.02509400       0.03358700
C       -0.92980000       4.83129000      10.00175000      -0.09639100       0.12614300       0.02500900
C        1.85958000       1.61041000      10.00162000       0.11896400      -0.14388200       0.03326000
C        1.39467000       4.02611000      10.00162000       0.05684700       0.16496600       0.03351500
C        4.18405000       0.80523000       9.99988000      -0.00202100       0.00568200       0.02567000
C        3.71912000       3.22088000      10.00175000       0.15375100       0.01400100       0.02467600
C       -2.32448000       4.56294000       9.99988000       0.01198200      -0.00021500       0.02601200
C        0.46490000       1.34206000      10.00163000      -0.06726700      -0.15896300       0.03730100
C       -0.00003000       3.75770000      10.00168000      -0.11065200       0.13994300       0.02479800
C        2.78935000       0.53682000      10.00175000       0.07838300      -0.13881700       0.02418300
C        2.32448000       2.95247000      10.00163000       0.18030900       0.05407300       0.03273700
C        1.85954000       5.36812000      10.00175000       0.06095100       0.14236300       0.02651700
C        4.64892000       2.14723000      10.00175000      -0.13955200      -0.03037100       0.02420300
Li       0.92978000       2.68406000      12.00000000      -0.00045700       0.00001200      -0.00000000
29
Lattice="6.508500099 0.0 0.0 -3.25425005 5.636526426 0.0 0.0 0.0 24.0" Properties=species:S:1:pos:R:3:forces:R:3 stress="-0.00810529864898151 9.106361814663674e-06 -0.0 9.106361814663674e-06 -0.008098726339871956 -0.0 -0.0 -0.0 0.006019224019874052" free_energy=-262.1204074 energy=-262.11992698 pbc="T T T"
C        0.00000000       0.00000000      13.99660000      -0.06662800      -0.15067800      -0.03304800
C       -0.46487000       2.41565000      13.99652000      -0.17881200      -0.02391500      -0.02693100
C       -0.92980000       4.83129000      13.99687000      -0.09488700       0.12448600      -0.02003800
C        1.85958000       1.61041000      13.99654000       0.12074300      -0.14398800      -0.02912100
C        1.39467000       4.02611000      13.99653000       0.05524400       0.16375400      -0.02625300
C        4.18405000       0.80523000      13.99870000      -0.00340200       0.00524600      -0.02311600
C        3.71912000       3.22088000      13.99689000       0.15376800       0.01155200      -0.02225100
C       -2.32448000       4.56294000      13.99868000       0.01191500      -0.00089900      -0.02829300
C        0.46490000       1.34206000      13.99631000      -0.06418600      -0.15507600      -0.03238500
C       -0.00003000       3.75770000      13.99695000      -0.11087500       0.13942900      -0.03132100
C        2.78935000       0.53682000      13.99692000       0.08161600      -0.13379600      -0.02595500
C        2.32448000       2.95247000      13.99656000       0.18582400       0.05309500      -0.02896900
C        1.85954000       5.36812000      13.99679000       0.05624300       0.14223000      -0.02819800
C        4.64892000       2.14723000      13.99692000      -0.14630800      -0.03115200      -0.02598700
C        0.00000000       0.00000000      10.00340000      -0.06662800      -0.15067800       0.03304800
C       -0.46487000       2.41565000      10.00348000      -0.17881200      -0.02391500       0.02693100
C       -0.92980000       4.83129000      10.00313000      -0.09488700       0.12448600       0.02003800
C        1.85958000       1.61041000      10.00346000       0.12074300      -0.14398800       0.02912100
C        1.39467000       4.02611000      10.00347000       0.05524400       0.16375400       0.02625300
C        4.18405000       0.80523000      10.00130000      -0.00340200       0.00524600       0.02311600
C        3.71912000       3.22088000      10.00311000       0.15376800       0.01155200       0.02225100
C       -2.32448000       4.56294000      10.00132000       0.01191500      -0.00089900       0.02829300
C        0.46490000       1.34206000      10.00369000      -0.06418600      -0.15507600       0.03238500
C       -0.00003000       3.75770000      10.00305000      -0.11087500       0.13942900       0.03132100
C        2.78935000       0.53682000      10.00308000       0.08161600      -0.13379600       0.02595500
C        2.32448000       2.95247000      10.00344000       0.18582400       0.05309500       0.02896900
C        1.85954000       5.36812000      10.00321000       0.05624300       0.14223000       0.02819800
C        4.64892000       2.14723000      10.00308000      -0.14630800      -0.03115200       0.02598700
Li       0.92976000       2.68406000      12.00000000      -0.00050500      -0.00058000       0.00000000
29
Lattice="6.508500099 0.0 0.0 -3.25425005 5.636526426 0.0 0.0 0.0 24.0" Properties=species:S:1:pos:R:3:forces:R:3 stress="-0.008082080235033224 1.311965218260661e-05 -0.0 1.311965218260661e-05 -0.008043283014306735 -0.0 -0.0 -0.0 0.005964348671639286" free_energy=-262.12365101 energy=-262.12317062 pbc="T T T"
C        0.00000000       0.00000000      13.99161000      -0.06733600      -0.15052700      -0.01627900
C       -0.46487000       2.41565000      13.99221000      -0.18355500      -0.01631500      -0.03447500
C       -0.92980000       4.83129000      13.99367000      -0.09265700       0.12409100      -0.03893100
C        1.85958000       1.61041000      13.99195000       0.12580500      -0.13444300      -0.03139300
C        1.39467000       4.02611000      13.99231000       0.05077100       0.15841000      -0.03380200
C        4.18405000       0.80523000      13.99508000      -0.00534100       0.00690100      -0.02883400
C        3.71912000       3.22088000      13.99340000       0.15925300       0.00318000      -0.03337600
C       -2.32448000       4.56294000      13.99438000       0.01312700      -0.00551100      -0.02170500
C        0.46490000       1.34206000      13.99120000      -0.06247400      -0.15734900      -0.02831300
C       -0.00003000       3.75770000      13.99228000      -0.11182900       0.14065300      -0.01248600
C        2.78935000       0.53682000      13.99296000       0.07727500      -0.13733100      -0.02006600
C        2.32448000       2.95247000      13.99201000       0.18338700       0.05565600      -0.01941400
C        1.85954000       5.36812000      13.99249000       0.05565900       0.14431400      -0.02883100
C        4.64892000       2.14723000      13.99296000      -0.14161600      -0.03186000      -0.02019600
C        0.00000000       0.00000000      10.00839000      -0.06733600      -0.15052700       0.01627900
C       -0.46487000       2.41565000      10.00779000      -0.18355500      -0.01631500       0.03447500
C       -0.92980000       4.83129000      10.00633000      -0.09265700       0.12409100       0.03893100
C        1.85958000       1.61041000      10.00805000       0.12580500      -0.13444300       0.03139300
C        1.39467000       4.02611000      10.00769000       0.05077100       0.15841000       0.03380200
C        4.18405000       0.80523000      10.00492000      -0.00534100       0.00690100       0.02883400
C        3.71912000       3.22088000      10.00660000       0.15925300       0.00318000       0.03337600
C       -2.32448000       4.56294000      10.00562000       0.01312700      -0.00551100       0.02170500
C        0.46490000       1.34206000      10.00880000      -0.06247400      -0.15734900       0.02831300
C       -0.00003000       3.75770000      10.00772000      -0.11182900       0.14065300       0.01248600
C        2.78935000       0.53682000      10.00704000       0.07727500      -0.13733100       0.02006600
C        2.32448000       2.95247000      10.00799000       0.18338700       0.05565600       0.01941400
C        1.85954000       5.36812000      10.00751000       0.05565900       0.14431400       0.02883100
C        4.64892000       2.14723000      10.00704000      -0.14161600      -0.03186000       0.02019600
Li       0.92968000       2.68398000      12.00000000      -0.00094000       0.00026000       0.00000000
29
Lattice="6.508500099 0.0 0.0 -3.25425005 5.636526426 0.0 0.0 0.0 24.0" Properties=species:S:1:pos:R:3:forces:R:3 stress="-0.007991946601746345 1.7001870858905996e-05 -0.0 1.7001870858905996e-05 -0.007991759356472568 -0.0 -0.0 -0.0 0.005783307457933916" free_energy=-262.13146554 energy=-262.13098515 pbc="T T T"
C        0.00000000       0.00000000      13.97861000      -0.06744300      -0.15092200      -0.04282800
C       -0.46487000       2.41565000      13.97907000      -0.17790000      -0.01324000      -0.01714100
C       -0.92980000       4.83129000      13.98271000      -0.08651700       0.12041800      -0.03533400
C        1.85958000       1.61041000      13.97847000       0.13316000      -0.13832600      -0.01201900
C        1.39467000       4.02611000      13.97943000       0.04629700       0.16644400      -0.01724900
C        4.18405000       0.80523000      13.98408000      -0.01858800       0.00788100      -0.02298800
C        3.71912000       3.22088000      13.98232000       0.15795300       0.00007000      -0.03181100
C       -2.32448000       4.56294000      13.98248000       0.00586600      -0.00851900      -0.01771800
C        0.46490000       1.34206000      13.97677000      -0.06535400      -0.16469100      -0.00731900
C       -0.00003000       3.75770000      13.98039000      -0.11282600       0.14302800      -0.01221400
C        2.78935000       0.53682000      13.98201000       0.07140400      -0.13645800      -0.02347400
C        2.32448000       2.95247000      13.97966000       0.19118800       0.06284000      -0.01589600
C        1.85954000       5.36812000      13.97995000       0.06198300       0.14805500      -0.02153100
C        4.64892000       2.14723000      13.98198000      -0.13916200      -0.03747000      -0.02246700
C        0.00000000       0.00000000      10.02139000      -0.06744300      -0.15092200       0.04282800
C       -0.46487000       2.41565000      10.02093000      -0.17790000      -0.01324000       0.01714100
C       -0.92980000       4.83129000      10.01729000      -0.08651700       0.12041800       0.03533400
C        1.85958000       1.61041000      10.02153000       0.13316000      -0.13832600       0.01201900
C        1.39467000       4.02611000      10.02057000       0.04629700       0.16644400       0.01724900
C        4.18405000       0.80523000      10.01592000      -0.01858800       0.00788100       0.02298800
C        3.71912000       3.22088000      10.01768000       0.15795300       0.00007000       0.03181100
C       -2.32448000       4.56294000      10.01752000       0.00586600      -0.00851900       0.01771800
C        0.46490000       1.34206000      10.02323000      -0.06535400      -0.16469100       0.00731900
C       -0.00003000       3.75770000      10.01961000      -0.11282600       0.14302800       0.01221400
C        2.78935000       0.53682000      10.01799000       0.07140400      -0.13645800       0.02347400
C        2.32448000       2.95247000      10.02034000       0.19118800       0.06284000       0.01589600
C        1.85954000       5.36812000      10.02005000       0.06198300       0.14805500       0.02153100
C        4.64892000       2.14723000      10.01802000      -0.13916200      -0.03747000       0.02246700
Li       0.92942000       2.68384000      12.00000000      -0.00012600       0.00177900       0.00000000
29
Lattice="6.508500099 0.0 0.0 -3.25425005 5.636526426 0.0 0.0 0.0 24.0" Properties=species:S:1:pos:R:3:forces:R:3 stress="-0.00798549288131018 1.032345609421091e-05 -0.0 1.032345609421091e-05 -0.0079782152816694 -0.0 -0.0 -0.0 0.0057273897776751286" free_energy=-262.1332386 energy=-262.13275838 pbc="T T T"
C        0.00000000       0.00000000      13.97465000      -0.06770300      -0.15164900      -0.02873900
C       -0.46487000       2.41565000      13.97661000      -0.17862600      -0.01387400      -0.01625800
C       -0.92980000       4.83129000      13.97958000      -0.08890200       0.11844400      -0.02810600
C        1.85958000       1.61041000      13.97622000       0.13317700      -0.13921100      -0.01510800
C        1.39467000       4.02611000      13.97699000       0.04626300       0.16639500      -0.01874600
C        4.18405000       0.80523000      13.98155000      -0.01732900       0.01087300      -0.02718200
C        3.71912000       3.22088000      13.97932000       0.15550700       0.00054700      -0.02751500
C       -2.32448000       4.56294000      13.98007000       0.00887400      -0.00291300      -0.03101200
C        0.46490000       1.34206000      13.97463000      -0.06557200      -0.16552200      -0.02143000
C       -0.00003000       3.75770000      13.97822000      -0.11319100       0.14279300      -0.02067600
C        2.78935000       0.53682000      13.97940000       0.06860000      -0.13721600      -0.02553700
C        2.32448000       2.95247000      13.97728000       0.19098200       0.06323200      -0.01898600
C        1.85954000       5.36812000      13.97729000       0.06622000       0.14769100      -0.02825800
C        4.64892000       2.14723000      13.97942000      -0.13813400      -0.04020200      -0.02561100
C        0.00000000       0.00000000      10.02535000      -0.06770300      -0.15164900       0.02873900
C       -0.46487000       2.41565000      10.02339000      -0.17862600      -0.01387400       0.01625800
C       -0.92980000       4.83129000      10.02042000      -0.08890200       0.11844400       0.02810600
C        1.85958000       1.61041000      10.02378000       0.13317700      -0.13921100       0.01510800
C        1.39467000       4.02611000      10.02301000       0.04626300       0.16639500       0.01874600
C        4.18405000       0.80523000      10.01845000      -0.01732900       0.01087300       0.02718200
C        3.71912000       3.22088000      10.02068000       0.15550700       0.00054700       0.02751500
C       -2.32448000       4.56294000      10.01993000       0.00887400      -0.00291300       0.03101200
C        0.46490000       1.34206000      10.02537000      -0.06557200      -0.16552200       0.02143000
C       -0.00003000       3.75770000      10.02178000      -0.11319100       0.14279300       0.02067600
C        2.78935000       0.53682000      10.02060000       0.06860000      -0.13721600       0.02553700
C        2.32448000       2.95247000      10.02272000       0.19098200       0.06323200       0.01898600
C        1.85954000       5.36812000      10.02271000       0.06622000       0.14769100       0.02825800
C        4.64892000       2.14723000      10.02058000      -0.13813400      -0.04020200       0.02561100
Li       0.92938000       2.68391000      12.00000000      -0.00032900       0.00122300      -0.00000000
29
Lattice="6.508500099 0.0 0.0 -3.25425005 5.636526426 0.0 0.0 0.0 24.0" Properties=species:S:1:pos:R:3:forces:R:3 stress="-0.007970488293371557 1.758233120761314e-05 -0.0 1.758233120761314e-05 -0.007981435900378357 -0.0 -0.0 -0.0 0.005666634927843781" free_energy=-262.13525308 energy=-262.13477291 pbc="T T T"
C        0.00000000       0.00000000      13.97114000      -0.06782700      -0.15228600      -0.00570600
C       -0.46487000       2.41565000      13.97375000      -0.17800400      -0.01388800      -0.01515500
C       -0.92980000       4.83129000      13.97680000      -0.08899100       0.11838500      -0.03446600
C        1.85958000       1.61041000      13.97334000       0.13448100      -0.14088600      -0.01330900
C        1.39467000       4.02611000      13.97414000       0.04563400       0.16735800      -0.01746700
C        4.18405000       0.80523000      13.97880000      -0.01517400       0.01221100      -0.03177400
C        3.71912000       3.22088000      13.97651000       0.15571600       0.00030800      -0.03319300
C       -2.32448000       4.56294000      13.97704000       0.00677300       0.00059900      -0.03203800
C        0.46490000       1.34206000      13.97144000      -0.06604500      -0.16664800      -0.01883700
C       -0.00003000       3.75770000      13.97537000      -0.11349400       0.14280100      -0.02289200
C        2.78935000       0.53682000      13.97660000       0.06661800      -0.13932200      -0.02622400
C        2.32448000       2.95247000      13.97440000       0.19153600       0.06461000      -0.02052500
C        1.85954000       5.36812000      13.97422000       0.06475200       0.14772900      -0.03195000
C        4.64892000       2.14723000      13.97664000      -0.13584800      -0.04147400      -0.02641600
C        0.00000000       0.00000000      10.02886000      -0.06782700      -0.15228600       0.00570600
C       -0.46487000       2.41565000      10.02625000      -0.17800400      -0.01388800       0.01515500
C       -0.92980000       4.83129000      10.02320000      -0.08899100       0.11838500       0.03446600
C        1.85958000       1.61041000      10.02666000       0.13448100      -0.14088600       0.01330900
C        1.39467000       4.02611000      10.02586000       0.04563400       0.16735800       0.01746700
C        4.18405000       0.80523000      10.02120000      -0.01517400       0.01221100       0.03177400
C        3.71912000       3.22088000      10.02349000       0.15571600       0.00030800       0.03319300
C       -2.32448000       4.56294000      10.02296000       0.00677300       0.00059900       0.03203800
C        0.46490000       1.34206000      10.02856000      -0.06604500      -0.16664800       0.01883700
C       -0.00003000       3.75770000      10.02463000      -0.11349400       0.14280100       0.02289200
C        2.78935000       0.53682000      10.02340000       0.06661800      -0.13932200       0.02622400
C        2.32448000       2.95247000      10.02560000       0.19153600       0.06461000       0.02052500
C        1.85954000       5.36812000      10.02578000       0.06475200       0.14772900       0.03195000
C        4.64892000       2.14723000      10.02336000      -0.13584800      -0.04147400       0.02641600
Li       0.92933000       2.68392000      12.00000000      -0.00025400       0.00100400      -0.00000000
29
Lattice="6.508500099 0.0 0.0 -3.25425005 5.636526426 0.0 0.0 0.0 24.0" Properties=species:S:1:pos:R:3:forces:R:3 stress="-0.007942576264560608 1.8880565105796856e-05 -0.0 1.8880565105796856e-05 -0.007928445487899607 -0.0 -0.0 -0.0 0.0056298849221105805" free_energy=-262.13789929 energy=-262.13741916 pbc="T T T"
C        0.00000000       0.00000000      13.96729000      -0.06824400      -0.15171800      -0.01732500
C       -0.46487000       2.41565000      13.96976000      -0.17859300      -0.01709900      -0.01365700
C       -0.92980000       4.83129000      13.97288000      -0.08955600       0.11844700      -0.03549800
C        1.85958000       1.61041000      13.96931000       0.13193600      -0.14258800      -0.01135700
C        1.39467000       4.02611000      13.97020000       0.04895200       0.17117100      -0.01813700
C        4.18405000       0.80523000      13.97498000      -0.01409600       0.01328600      -0.03753500
C        3.71912000       3.22088000      13.97255000       0.15452700       0.00086400      -0.03354600
C       -2.32448000       4.56294000      13.97301000       0.00585500      -0.00132600      -0.03221200
C        0.46490000       1.34206000      13.96711000      -0.06898400      -0.17050600      -0.01172000
C       -0.00003000       3.75770000      13.97134000      -0.11419600       0.14419000      -0.00331400
C        2.78935000       0.53682000      13.97283000       0.07526500      -0.13361500      -0.03156100
C        2.32448000       2.95247000      13.97031000       0.19737100       0.05652500      -0.01115800
C        1.85954000       5.36812000      13.96996000       0.06508800       0.14682400      -0.02548800
C        4.64892000       2.14723000      13.97286000      -0.14511600      -0.03545900      -0.03188700
C        0.00000000       0.00000000      10.03271000      -0.06824400      -0.15171800       0.01732500
C       -0.46487000       2.41565000      10.03024000      -0.17859300      -0.01709900       0.01365700
C       -0.92980000       4.83129000      10.02712000      -0.08955600       0.11844700       0.03549800
C        1.85958000       1.61041000      10.03069000       0.13193600      -0.14258800       0.01135700
C        1.39467000       4.02611000      10.02980000       0.04895200       0.17117100       0.01813700
C        4.18405000       0.80523000      10.02502000      -0.01409600       0.01328600       0.03753500
C        3.71912000       3.22088000      10.02745000       0.15452700       0.00086400       0.03354600
C       -2.32448000       4.56294000      10.02699000       0.00585500      -0.00132600       0.03221200
C        0.46490000       1.34206000      10.03289000      -0.06898400      -0.17050600       0.01172000
C       -0.00003000       3.75770000      10.02866000      -0.11419600       0.14419000       0.00331400
C        2.78935000       0.53682000      10.02717000       0.07526500      -0.13361500       0.03156100
C        2.32448000       2.95247000      10.02969000       0.19737100       0.05652500       0.01115800
C        1.85954000       5.36812000      10.03004000       0.06508800       0.14682400       0.02548800
C        4.64892000       2.14723000      10.02714000      -0.14511600      -0.03545900       0.03188700
Li       0.92926000       2.68390000      12.00000000      -0.00041700       0.00200900      -0.00000000
29
Lattice="6.508500099 0.0 0.0 -3.25425005 5.636526426 0.0 0.0 0.0 24.0" Properties=species:S:1:pos:R:3:forces:R:3 stress="-0.007987265469901932 1.3075961618725426e-05 -0.0 1.3075961618725426e-05 -0.007985967236003748 -0.0 -0.0 -0.0 0.00572990510585286" free_energy=-262.13177316 energy=-262.13129284 pbc="T T T"
C        0.00000000       0.00000000      13.97780000      -0.06716400      -0.15069500      -0.03464100
C       -0.46487000       2.41565000      13.97885000      -0.17775800      -0.01313500      -0.01576600
C       -0.92980000       4.83129000      13.98159000      -0.08646100       0.12071700      -0.02656900
C        1.85958000       1.61041000      13.97850000       0.13329600      -0.13820600      -0.01358800
C        1.39467000       4.02611000      13.97925000       0.04652100       0.16675200      -0.02043100
C        4.18405000       0.80523000      13.98365000      -0.01827600       0.00803200      -0.02457300
C        3.71912000       3.22088000      13.98137000       0.15825900       0.00032700      -0.02539000
C       -2.32448000       4.56294000      13.98231000       0.00615200      -0.00833500      -0.03252600
C        0.46490000       1.34206000      13.97702000      -0.06607500      -0.16580600      -0.01656600
C       -0.00003000       3.75770000      13.98007000      -0.11255000       0.14325700      -0.01612800
C        2.78935000       0.53682000      13.98159000       0.06909200      -0.13528400      -0.02551100
C        2.32448000       2.95247000      13.97935000       0.19141700       0.06307700      -0.01713200
C        1.85954000       5.36812000      13.97945000       0.06209900       0.14829600      -0.02416900
C        4.64892000       2.14723000      13.98162000      -0.13859400      -0.03989200      -0.02556200
C        0.00000000       0.00000000      10.02220000      -0.06716400      -0.15069500       0.03464100
C       -0.46487000       2.41565000      10.02115000      -0.17775800      -0.01313500       0.01576600
C       -0.92980000       4.83129000      10.01841000      -0.08646100       0.12071700       0.02656900
C        1.85958000       1.61041000      10.02150000       0.13329600      -0.13820600       0.01358800
C        1.39467000       4.02611000      10.02075000       0.04652100       0.16675200       0.02043100
C        4.18405000       0.80523000      10.01635000      -0.01827600       0.00803200       0.02457300
C        3.71912000       3.22088000      10.01863000       0.15825900       0.00032700       0.02539000
C       -2.32448000       4.56294000      10.01769000       0.00615200      -0.00833500       0.03252600
C        0.46490000       1.34206000      10.02298000      -0.06607500      -0.16580600       0.01656600
C       -0.00003000       3.75770000      10.01993000      -0.11255000       0.14325700       0.01612800
C        2.78935000       0.53682000      10.01841000       0.06909200      -0.13528400       0.02551100
C        2.32448000       2.95247000      10.02065000       0.19141700       0.06307700       0.01713200