29
Lattice="6.508500099 0.0 0.0 -3.25425005 5.636526426 0.0 0.0 0.0 24.0" Properties=species:S:1:pos:R:3:forces:R:3 stress="-0.00786467598916046 1.737636140645899e-05 -0.0 1.737636140645899e-05 -0.007857311008391918 -0.0 -0.0 -0.0 -0.007154510839308336" free_energy=-261.4706554 energy=-261.470134 pbc="T T T"
C        0.00000000       0.00000000      13.60000000      -0.08242600      -0.15481400       0.08549700
C       -0.46487000       2.41565000      13.60000000      -0.34903700      -0.05282700       0.38903100
C       -0.92980000       4.83129000      13.60000000      -0.09141800       0.14313000       0.08426700
C        1.85958000       1.61041000      13.60000000       0.22737100      -0.27753700       0.38910300
C        1.39467000       4.02611000      13.60000000       0.11717200       0.32460600       0.38931300
C        4.18405000       0.80523000      13.60000000      -0.00197000       0.00567900       0.12873500
C        3.71912000       3.22088000      13.60000000       0.16561500       0.00379800       0.08427100
C       -2.32448000       4.56294000      13.60000000       0.01199100      -0.00019500       0.12872700
C        0.46490000       1.34206000      13.60000000      -0.12736800      -0.31967400       0.38881300
C       -0.00003000       3.75770000      13.60000000      -0.21993300       0.27247800       0.39034500
C        2.78935000       0.53682000      13.60000000       0.07396600      -0.15379600       0.08428500
C        2.32448000       2.95247000      13.60000000       0.35135500       0.08227700       0.38907900
C        1.85954000       5.36812000      13.60000000       0.07803900       0.14750900       0.08424100
C        4.64892000       2.14723000      13.60000000      -0.15263100      -0.02027900       0.08426900
C        0.00000000       0.00000000      10.40000000      -0.08242600      -0.15481400      -0.08549700
C       -0.46487000       2.41565000      10.40000000      -0.34903700      -0.05282700      -0.38903100
C       -0.92980000       4.83129000      10.40000000      -0.09141800       0.14313000      -0.08426700
C        1.85958000       1.61041000      10.40000000       0.22737100      -0.27753700      -0.38910300
C        1.39467000       4.02611000      10.40000000       0.11717200       0.32460600      -0.38931300
C        4.18405000       0.80523000      10.40000000      -0.00197000       0.00567900      -0.12873500
C        3.71912000       3.22088000      10.40000000       0.16561500       0.00379800      -0.08427100
C       -2.32448000       4.56294000      10.40000000       0.01199100      -0.00019500      -0.12872700
C        0.46490000       1.34206000      10.40000000      -0.12736800      -0.31967400      -0.38881300
C       -0.00003000       3.75770000      10.40000000      -0.21993300       0.27247800      -0.39034500
C        2.78935000       0.53682000      10.40000000       0.07396600      -0.15379600      -0.08428500
C        2.32448000       2.95247000      10.40000000       0.35135500       0.08227700      -0.38907900
C        1.85954000       5.36812000      10.40000000       0.07803900       0.14750900      -0.08424100
C        4.64892000       2.14723000      10.40000000      -0.15263100      -0.02027900      -0.08426900
Li       0.92980000       2.68406000      12.00000000      -0.00145200      -0.00071100      -0.00000000
29
Lattice="6.508500099 0.0 0.0 -3.25425005 5.636526426 0.0 0.0 0.0 24.0" Properties=species:S:1:pos:R:3:forces:R:3 stress="-0.007862728638313183 3.011528153238672e-05 -0.0 3.011528153238672e-05 -0.007844022835462911 -0.0 -0.0 -0.0 -0.006165649823967273" free_energy=-261.55639889 energy=-261.55588134 pbc="T T T"
C        0.00000000       0.00000000      13.60412000      -0.08356900      -0.15965500       0.14376700
C       -0.46487000       2.41565000      13.61877000      -0.33100500      -0.03998400       0.30474200
C       -0.92980000       4.83129000      13.60407000      -0.09388800       0.14330500       0.13429100
C        1.85958000       1.61041000      13.61877000       0.22897100      -0.25562500       0.30437600
C        1.39467000       4.02611000      13.61878000       0.10004900       0.30529600       0.30444100
C        4.18405000       0.80523000      13.60621000      -0.00702800       0.00708200       0.06856200
C        3.71912000       3.22088000      13.60407000       0.16972000       0.00080400       0.13393700
C       -2.32448000       4.56294000      13.60621000       0.01306700      -0.00805300       0.07111100
C        0.46490000       1.34206000      13.61876000      -0.11748400      -0.30871800       0.31205800
C       -0.00003000       3.75770000      13.61883000      -0.21016800       0.25929400       0.29930300
C        2.78935000       0.53682000      13.60407000       0.07488900      -0.15426000       0.13405500
C        2.32448000       2.95247000      13.61877000       0.34261600       0.08611300       0.30277600
C        1.85954000       5.36812000      13.60406000       0.07309700       0.15057300       0.13894200
C        4.64892000       2.14723000      13.60407000      -0.15863200      -0.02549300       0.13404400
C        0.00000000       0.00000000      10.39588000      -0.08356900      -0.15965500      -0.14376700
C       -0.46487000       2.41565000      10.38123000      -0.33100500      -0.03998400      -0.30474200
C       -0.92980000       4.83129000      10.39593000      -0.09388800       0.14330500      -0.13429100
C        1.85958000       1.61041000      10.38123000       0.22897100      -0.25562500      -0.30437600
C        1.39467000       4.02611000      10.38122000       0.10004900       0.30529600      -0.30444100
C        4.18405000       0.80523000      10.39379000      -0.00702800       0.00708200      -0.06856200
C        3.71912000       3.22088000      10.39593000       0.16972000       0.00080400      -0.13393700
C       -2.32448000       4.56294000      10.39379000       0.01306700      -0.00805300      -0.07111100
C        0.46490000       1.34206000      10.38124000      -0.11748400      -0.30871800      -0.31205800
C       -0.00003000       3.75770000      10.38117000      -0.21016800       0.25929400      -0.29930300
C        2.78935000       0.53682000      10.39593000       0.07488900      -0.15426000      -0.13405500
C        2.32448000       2.95247000      10.38123000       0.34261600       0.08611300      -0.30277600
C        1.85954000       5.36812000      10.39594000       0.07309700       0.15057300      -0.13894200
C        4.64892000       2.14723000      10.39593000      -0.15863200      -0.02549300      -0.13404400
Li       0.92973000       2.68402000      12.00000000      -0.00126900      -0.00135600       0.00000000
29
Lattice="6.508500099 0.0 0.0 -3.25425005 5.636526426 0.0 0.0 0.0 24.0" Properties=species:S:1:pos:R:3:forces:R:3 stress="-0.0077051554989211336 3.2518262545851775e-05 -0.0 3.2518262545851775e-05 -0.007625282906637206 -0.0 -0.0 -0.0 -0.004025804593740331" free_energy=-261.70993608 energy=-261.70941149 pbc="T T T"
C        0.00000000       0.00000000      13.62362000      -0.08078600      -0.15230500       0.15679000
C       -0.46487000       2.41565000      13.66009000      -0.30445000      -0.04810200       0.18199600
C       -0.92980000       4.83129000      13.62228000      -0.08495600       0.13689900       0.13795100
C        1.85958000       1.61041000      13.66004000       0.20688500      -0.24786100       0.18488300
C        1.39467000       4.02611000      13.66006000       0.10321200       0.30333000       0.17860600
C        4.18405000       0.80523000      13.61551000      -0.01704700       0.01007700       0.14683900
C        3.71912000       3.22088000      13.62223000       0.16718100      -0.00687200       0.13947000
C       -2.32448000       4.56294000      13.61585000       0.00889500      -0.00320000       0.16354400
C        0.46490000       1.34206000      13.66107000      -0.12184600      -0.28729300       0.17805300
C       -0.00003000       3.75770000      13.65942000      -0.19682600       0.24816500       0.16937800
C        2.78935000       0.53682000      13.62224000       0.06479300      -0.15028500       0.13574900
C        2.32448000       2.95247000      13.65983000       0.32041200       0.06952800       0.17054100
C        1.85954000       5.36812000      13.62290000       0.08108800       0.15508600       0.13991100
C        4.64892000       2.14723000      13.62224000      -0.14661600      -0.02758800       0.13584900
C        0.00000000       0.00000000      10.37638000      -0.08078600      -0.15230500      -0.15679000
C       -0.46487000       2.41565000      10.33991000      -0.30445000      -0.04810200      -0.18199600
C       -0.92980000       4.83129000      10.37772000      -0.08495600       0.13689900      -0.13795100
C        1.85958000       1.61041000      10.33996000       0.20688500      -0.24786100      -0.18488300
C        1.39467000       4.02611000      10.33994000       0.10321200       0.30333000      -0.17860600
C        4.18405000       0.80523000      10.38449000      -0.01704700       0.01007700      -0.14683900
C        3.71912000       3.22088000      10.37777000       0.16718100      -0.00687200      -0.13947000
C       -2.32448000       4.56294000      10.38415000       0.00889500      -0.00320000      -0.16354400
C        0.46490000       1.34206000      10.33893000      -0.12184600      -0.28729300      -0.17805300
C       -0.00003000       3.75770000      10.34058000      -0.19682600       0.24816500      -0.16937800
C        2.78935000       0.53682000      10.37776000       0.06479300      -0.15028500      -0.13574900
C        2.32448000       2.95247000      10.34017000       0.32041200       0.06952800      -0.17054100
C        1.85954000       5.36812000      10.37710000       0.08108800       0.15508600      -0.13991100
C        4.64892000       2.14723000      10.37776000      -0.14661600      -0.02758800      -0.13584900
Li       0.92956000       2.68384000      12.00000000       0.00012300       0.00084200       0.00000000
29
Lattice="6.508500099 0.0 0.0 -3.25425005 5.636526426 0.0 0.0 0.0 24.0" Properties=species:S:1:pos:R:3:forces:R:3 stress="-0.0074515879491730014 1.7725885917508455e-05 -0.0 1.7725885917508455e-05 -0.0074553390961576566 -0.0 -0.0 -0.0 -0.0019454222209556785" free_energy=-261.82611035 energy=-261.82531972 pbc="T T T"
C        0.00000000       0.00000000      13.64994000      -0.07553800      -0.14401500       0.11976100
C       -0.46487000       2.41565000      13.70187000      -0.28420500      -0.04340500       0.05762000
C       -0.92980000       4.83129000      13.64607000      -0.09186300       0.12956500       0.14477300
C        1.85958000       1.61041000      13.70207000       0.20992900      -0.25220500       0.05767000
C        1.39467000       4.02611000      13.70151000       0.09138400       0.30149300       0.05478100
C        4.18405000       0.80523000      13.63478000      -0.01193000       0.01335300       0.18091600
C        3.71912000       3.22088000      13.64614000       0.15448600       0.00429500       0.14752100
C       -2.32448000       4.56294000      13.63689000       0.00779600       0.00838000       0.17663400
C        0.46490000       1.34206000      13.70308000      -0.12149500      -0.28774500       0.06586100
C       -0.00003000       3.75770000      13.69958000      -0.18983700       0.23847400       0.08827800
C        2.78935000       0.53682000      13.64582000       0.06562300      -0.13315300       0.15143200
C        2.32448000       2.95247000      13.70038000       0.30219800       0.05338600       0.08191700
C        1.85954000       5.36812000      13.64726000       0.08727700       0.13655900       0.16052200
C        4.64892000       2.14723000      13.64582000      -0.14394400      -0.02419600       0.15097900
C        0.00000000       0.00000000      10.35006000      -0.07553800      -0.14401500      -0.11976100
C       -0.46487000       2.41565000      10.29813000      -0.28420500      -0.04340500      -0.05762000
C       -0.92980000       4.83129000      10.35393000      -0.09186300       0.12956500      -0.14477300
C        1.85958000       1.61041000      10.29793000       0.20992900      -0.25220500      -0.05767000
C        1.39467000       4.02611000      10.29849000       0.09138400       0.30149300      -0.05478100
C        4.18405000       0.80523000      10.36522000      -0.01193000       0.01335300      -0.18091600
C        3.71912000       3.22088000      10.35386000       0.15448600       0.00429500      -0.14752100
C       -2.32448000       4.56294000      10.36311000       0.00779600       0.00838000      -0.17663400
C        0.46490000       1.34206000      10.29692000      -0.12149500      -0.28774500      -0.06586100
C       -0.00003000       3.75770000      10.30042000      -0.18983700       0.23847400      -0.08827800
C        2.78935000       0.53682000      10.35418000       0.06562300      -0.13315300      -0.15143200
C        2.32448000       2.95247000      10.29962000       0.30219800       0.05338600      -0.08191700
C        1.85954000       5.36812000      10.35274000       0.08727700       0.13655900      -0.16052200
C        4.64892000       2.14723000      10.35418000      -0.14394400      -0.02419600      -0.15097900
Li       0.92947000       2.68381000      12.00000000       0.00024100      -0.00157100      -0.00000000
29
Lattice="6.508500099 0.0 0.0 -3.25425005 5.636526426 0.0 0.0 0.0 24.0" Properties=species:S:1:pos:R:3:forces:R:3 stress="-0.0074402346440730184 1.703307840453541e-05 -0.0 1.703307840453541e-05 -0.007501488814634438 -0.0 -0.0 -0.0 -0.0011727109081530794" free_energy=-261.87707288 energy=-261.87571606 pbc="T T T"
C        0.00000000       0.00000000      13.66485000      -0.07405700      -0.14352400       0.13652900
C       -0.46487000       2.41565000      13.71796000      -0.28611500      -0.04366300       0.04447600
C       -0.92980000       4.83129000      13.66203000      -0.09202400       0.12626700       0.16597100
C        1.85958000       1.61041000      13.71820000       0.19986700      -0.23494700       0.03855200
C        1.39467000       4.02611000      13.71734000       0.09205900       0.28140800       0.05329700
C        4.18405000       0.80523000      13.65129000       0.00094900       0.00649200       0.17370700
C        3.71912000       3.22088000      13.66229000       0.15171000       0.00569100       0.16417400
C       -2.32448000       4.56294000      13.65347000       0.01104500       0.01152000       0.14727900
C        0.46490000       1.34206000      13.71987000      -0.11333000      -0.28125400       0.03027100
C       -0.00003000       3.75770000      13.71732000      -0.18569400       0.23076400       0.05438900
C        2.78935000       0.53682000      13.66217000       0.07852500      -0.13172500       0.14014600
C        2.32448000       2.95247000      13.71783000       0.28640700       0.05176400       0.04684300
C        1.85954000       5.36812000      13.66443000       0.08179100       0.13912800       0.12784200
C        4.64892000       2.14723000      13.66215000      -0.15119000      -0.01674600       0.14153300
C        0.00000000       0.00000000      10.33515000      -0.07405700      -0.14352400      -0.13652900
C       -0.46487000       2.41565000      10.28204000      -0.28611500      -0.04366300      -0.04447600
C       -0.92980000       4.83129000      10.33797000      -0.09202400       0.12626700      -0.16597100
C        1.85958000       1.61041000      10.28180000       0.19986700      -0.23494700      -0.03855200
C        1.39467000       4.02611000      10.28266000       0.09205900       0.28140800      -0.05329700
C        4.18405000       0.80523000      10.34871000       0.00094900       0.00649200      -0.17370700
C        3.71912000       3.22088000      10.33771000       0.15171000       0.00569100      -0.16417400
C       -2.32448000       4.56294000      10.34653000       0.01104500       0.01152000      -0.14727900
C        0.46490000       1.34206000      10.28013000      -0.11333000      -0.28125400      -0.03027100
C       -0.00003000       3.75770000      10.28268000      -0.18569400       0.23076400      -0.05438900
C        2.78935000       0.53682000      10.33783000       0.07852500      -0.13172500      -0.14014600
C        2.32448000       2.95247000      10.28217000       0.28640700       0.05176400      -0.04684300
C        1.85954000       5.36812000      10.33557000       0.08179100       0.13912800      -0.12784200
C        4.64892000       2.14723000      10.33785000      -0.15119000      -0.01674600      -0.14153300
Li       0.92945000       2.68368000      12.00000000       0.00011200      -0.00235400       0.00000000
29
Lattice="6.508500099 0.0 0.0 -3.25425005 5.636526426 0.0 0.0 0.0 24.0" Properties=species:S:1:pos:R:3:forces:R:3 stress="-0.007519564225062996 1.1609206974142861e-06 -0.0 1.1609206974142861e-06 -0.0074853233059984 -0.0 -0.0 -0.0 -9.545139906213267e-05" free_energy=-261.95009721 energy=-261.94791015 pbc="T T T"
C        0.00000000       0.00000000      13.69289000      -0.07253800      -0.14686200       0.08759700
C       -0.46487000       2.41565000      13.74121000      -0.26951600      -0.04488000       0.02346200
C       -0.92980000       4.83129000      13.69322000      -0.09601200       0.10822000       0.08671600
C        1.85958000       1.61041000      13.74082000       0.18712400      -0.22331900       0.02259800
C        1.39467000       4.02611000      13.74144000       0.08888700       0.26773000       0.02534000
C        4.18405000       0.80523000      13.68173000      -0.00312500       0.00905500       0.13463800
C        3.71912000       3.22088000      13.69336000       0.13629400       0.00117200       0.08342200
C       -2.32448000       4.56294000      13.68128000       0.00325900       0.01383500       0.17495600
C        0.46490000       1.34206000      13.74191000      -0.11032600      -0.26029800       0.01858200
C       -0.00003000       3.75770000      13.74194000      -0.17439100       0.21694200       0.04432300
C        2.78935000       0.53682000      13.69052000       0.09699100      -0.13266000       0.13673900
C        2.32448000       2.95247000      13.74160000       0.28408000       0.05980500       0.04213100
C        1.85954000       5.36812000      13.69190000       0.08918500       0.13658300       0.13191100
C        4.64892000       2.14723000      13.69064000      -0.16002500      -0.00613600       0.13825100
C        0.00000000       0.00000000      10.30711000      -0.07253800      -0.14686200      -0.08759700
C       -0.46487000       2.41565000      10.25879000      -0.26951600      -0.04488000      -0.02346200
C       -0.92980000       4.83129000      10.30678000      -0.09601200       0.10822000      -0.08671600
C        1.85958000       1.61041000      10.25918000       0.18712400      -0.22331900      -0.02259800
C        1.39467000       4.02611000      10.25856000       0.08888700       0.26773000      -0.02534000
C        4.18405000       0.80523000      10.31827000      -0.00312500       0.00905500      -0.13463800
C        3.71912000       3.22088000      10.30664000       0.13629400       0.00117200      -0.08342200
C       -2.32448000       4.56294000      10.31872000       0.00325900       0.01383500      -0.17495600
C        0.46490000       1.34206000      10.25809000      -0.11032600      -0.26029800      -0.01858200
C       -0.00003000       3.75770000      10.25806000      -0.17439100       0.21694200      -0.04432300
C        2.78935000       0.53682000      10.30948000       0.09699100      -0.13266000      -0.13673900
C        2.32448000       2.95247000      10.25840000       0.28408000       0.05980500      -0.04213100
C        1.85954000       5.36812000      10.30810000       0.08918500       0.13658300      -0.13191100
C        4.64892000       2.14723000      10.30936000      -0.16002500      -0.00613600      -0.13825100
Li       0.92942000       2.68333000      12.00000000       0.00022500       0.00163000       0.00000000
29
Lattice="6.508500099 0.0 0.0 -3.25425005 5.636526426 0.0 0.0 0.0 24.0" Properties=species:S:1:pos:R:3:forces:R:3 stress="-0.007617543435321111 1.3050995582221895e-05 -0.0 1.3050995582221895e-05 -0.007638689668239603 -0.0 -0.0 -0.0 0.0008145793560190239" free_energy=-262.02344421 energy=-262.02132402 pbc="T T T"
C        0.00000000       0.00000000      13.72525000      -0.07461700      -0.15276500       0.15131900
C       -0.46487000       2.41565000      13.76670000      -0.25690800      -0.03353400       0.05193600
C       -0.92980000       4.83129000      13.72739000      -0.09598500       0.12127200       0.11057300
C        1.85958000       1.61041000      13.76585000       0.17843500      -0.20012700       0.05447000
C        1.39467000       4.02611000      13.76758000       0.07461100       0.23479400       0.05927900
C        4.18405000       0.80523000      13.71952000      -0.00552300       0.00673100       0.11947000
C        3.71912000       3.22088000      13.72716000       0.15462100       0.00573200       0.11160400
C       -2.32448000       4.56294000      13.72165000       0.00193400       0.00936700       0.06289300
C        0.46490000       1.34206000      13.76634000      -0.09590300      -0.24660300       0.00963800
C       -0.00003000       3.75770000      13.77052000      -0.16513500       0.19975800      -0.00718100
C        2.78935000       0.53682000      13.72799000       0.09962900      -0.13933500       0.07769800
C        2.32448000       2.95247000      13.76942000       0.27525600       0.06741600      -0.00491000
C        1.85954000       5.36812000      13.72857000       0.07413100       0.13846400       0.04738000
C        4.64892000       2.14723000      13.72836000      -0.16393700      -0.01292700       0.07393900
C        0.00000000       0.00000000      10.27475000      -0.07461700      -0.15276500      -0.15131900
C       -0.46487000       2.41565000      10.23330000      -0.25690800      -0.03353400      -0.05193600
C       -0.92980000       4.83129000      10.27261000      -0.09598500       0.12127200      -0.11057300
C        1.85958000       1.61041000      10.23415000       0.17843500      -0.20012700      -0.05447000
C        1.39467000       4.02611000      10.23242000       0.07461100       0.23479400      -0.05927900
C        4.18405000       0.80523000      10.28048000      -0.00552300       0.00673100      -0.11947000
C        3.71912000       3.22088000      10.27284000       0.15462100       0.00573200      -0.11160400
C       -2.32448000       4.56294000      10.27835000       0.00193400       0.00936700      -0.06289300
C        0.46490000       1.34206000      10.23366000      -0.09590300      -0.24660300      -0.00963800
C       -0.00003000       3.75770000      10.22948000      -0.16513500       0.19975800       0.00718100
C        2.78935000       0.53682000      10.27201000       0.09962900      -0.13933500      -0.07769800
C        2.32448000       2.95247000      10.23058000       0.27525600       0.06741600       0.00491000
C        1.85954000       5.36812000      10.27143000       0.07413100       0.13846400      -0.04738000
C        4.64892000       2.14723000      10.27164000      -0.16393700      -0.01292700      -0.07393900
Li       0.92940000       2.68324000      12.00000000      -0.00121700       0.00351500      -0.00000000
29
Lattice="6.508500099 0.0 0.0 -3.25425005 5.636526426 0.0 0.0 0.0 24.0" Properties=species:S:1:pos:R:3:forces:R:3 stress="-0.007674266270257138 1.2451810706137098e-05 -0.0 1.2451810706137098e-05 -0.007703938404641588 -0.0 -0.0 -0.0 0.0008958125972923945" free_energy=-262.03233879 energy=-262.03023614 pbc="T T T"
C        0.00000000       0.00000000      13.73345000      -0.07502600      -0.15546100       0.05417500
C       -0.46487000       2.41565000      13.76989000      -0.25172800      -0.03314500       0.02356100
C       -0.92980000       4.83129000      13.73362000      -0.10153200       0.12516500       0.06107800
C        1.85958000       1.61041000      13.76915000       0.17737000      -0.20103600       0.02621000
C        1.39467000       4.02611000      13.77114000       0.07382200       0.23792600       0.01515100
C        4.18405000       0.80523000      13.72622000      -0.00235700       0.00177200       0.07392900
C        3.71912000       3.22088000      13.73344000       0.15573000       0.00829200       0.06092700
C       -2.32448000       4.56294000      13.72557000       0.00977800       0.00947000       0.10874600
C        0.46490000       1.34206000      13.76741000      -0.09428100      -0.24102400       0.06456200
C       -0.00003000       3.75770000      13.77083000      -0.16212400       0.19767800       0.04413200
C        2.78935000       0.53682000      13.73262000       0.08889200      -0.13650300       0.09826900
C        2.32448000       2.95247000      13.76983000       0.26802200       0.06746100       0.04465900
C        1.85954000       5.36812000      13.73168000       0.07543900       0.13777700       0.10580400
C        4.64892000       2.14723000      13.73281000      -0.16147000      -0.02027400       0.09782200
C        0.00000000       0.00000000      10.26655000      -0.07502600      -0.15546100      -0.05417500
C       -0.46487000       2.41565000      10.23011000      -0.25172800      -0.03314500      -0.02356100
C       -0.92980000       4.83129000      10.26638000      -0.10153200       0.12516500      -0.06107800
C        1.85958000       1.61041000      10.23085000       0.17737000      -0.20103600      -0.02621000
C        1.39467000       4.02611000      10.22886000       0.07382200       0.23792600      -0.01515100
C        4.18405000       0.80523000      10.27378000      -0.00235700       0.00177200      -0.07392900
C        3.71912000       3.22088000      10.26656000       0.15573000       0.00829200      -0.06092700
C       -2.32448000       4.56294000      10.27443000       0.00977800       0.00947000      -0.10874600
C        0.46490000       1.34206000      10.23259000      -0.09428100      -0.24102400      -0.06456200
C       -0.00003000       3.75770000      10.22917000      -0.16212400       0.19767800      -0.04413200
C        2.78935000       0.53682000      10.26738000       0.08889200      -0.13650300      -0.09826900
C        2.32448000       2.95247000      10.23017000       0.26802200       0.06746100      -0.04465900
C        1.85954000       5.36812000      10.26832000       0.07543900       0.13777700      -0.10580400
C        4.64892000       2.14723000      10.26719000      -0.16147000      -0.02027400      -0.09782200
Li       0.92934000       2.68341000      12.00000000      -0.00106900       0.00380200       0.00000000
29
Lattice="6.508500099 0.0 0.0 -3.25425005 5.636526426 0.0 0.0 0.0 24.0" Properties=species:S:1:pos:R:3:forces:R:3 stress="-0.0076877104809142905 -5.991848760847928e-07 -0.0 -5.991848760847928e-07 -0.007751398840034803 -0.0 -0.0 -0.0 0.0009411384365645588" free_energy=-262.03704243 energy=-262.03494627 pbc="T T T"
C        0.00000000       0.00000000      13.73538000      -0.07453800      -0.15472800       0.08500400
C       -0.46487000       2.41565000      13.77067000      -0.24928600      -0.03274100       0.04732200
C       -0.92980000       4.83129000      13.73582000      -0.10167000       0.12402300       0.07785600
C        1.85958000       1.61041000      13.77004000       0.17630000      -0.19937300       0.04846800
C        1.39467000       4.02611000      13.77159000       0.07332300       0.23555800       0.04045900
C        4.18405000       0.80523000      13.72891000      -0.00351900       0.00529000       0.09360200
C        3.71912000       3.22088000      13.73564000       0.15498700       0.00795400       0.07716500
C       -2.32448000       4.56294000      13.72963000       0.00907700       0.00470900       0.07643600
C        0.46490000       1.34206000      13.76981000      -0.09256200      -0.23536800       0.03894100
C       -0.00003000       3.75770000      13.77242000      -0.16091400       0.19677000       0.03368900
C        2.78935000       0.53682000      13.73627000       0.08686800      -0.13676900       0.06437100
C        2.32448000       2.95247000      13.77144000       0.26539300       0.06751300       0.02800500
C        1.85954000       5.36812000      13.73563000       0.07844300       0.14007500       0.07486900
C        4.64892000       2.14723000      13.73644000      -0.16142700      -0.02411100       0.06385100
C        0.00000000       0.00000000      10.26462000      -0.07453800      -0.15472800      -0.08500400
C       -0.46487000       2.41565000      10.22933000      -0.24928600      -0.03274100      -0.04732200
C       -0.92980000       4.83129000      10.26418000      -0.10167000       0.12402300      -0.07785600
C        1.85958000       1.61041000      10.22996000       0.17630000      -0.19937300      -0.04846800
C        1.39467000       4.02611000      10.22841000       0.07332300       0.23555800      -0.04045900
C        4.18405000       0.80523000      10.27109000      -0.00351900       0.00529000      -0.09360200
C        3.71912000       3.22088000      10.26436000       0.15498700       0.00795400      -0.07716500
C       -2.32448000       4.56294000      10.27037000       0.00907700       0.00470900      -0.07643600
C        0.46490000       1.34206000      10.23019000      -0.09256200      -0.23536800      -0.03894100
C       -0.00003000       3.75770000      10.22758000      -0.16091400       0.19677000      -0.03368900
C        2.78935000       0.53682000      10.26373000       0.08686800      -0.13676900      -0.06437100
C        2.32448000       2.95247000      10.22856000       0.26539300       0.06751300      -0.02800500