29
Lattice="6.508500099 0.0 0.0 -3.25425005 5.636526426 0.0 0.0 0.0 24.0" Properties=species:S:1:pos:R:3:forces:R:3 stress="-0.007957125222333042 1.768219535362727e-05 -0.0 1.768219535362727e-05 -0.007950003660420408 -0.0 -0.0 -0.0 0.0017777752858344543" free_energy=-262.10086805 energy=-262.09860837 pbc="T T T"
C        0.00000000       0.00000000      13.80000000      -0.07449300      -0.15723400      -0.01628200
C       -0.46487000       2.41565000      13.80000000      -0.23243600      -0.03337500       0.10379200
C       -0.92980000       4.83129000      13.80000000      -0.09693200       0.13765500      -0.01628300
C        1.85958000       1.61041000      13.80000000       0.15226700      -0.18514100       0.10386000
C        1.39467000       4.02611000      13.80000000       0.07513300       0.21285900       0.10402100
C        4.18405000       0.80523000      13.80000000      -0.00245600       0.00535800       0.02756000
C        3.71912000       3.22088000      13.80000000       0.16419000       0.01150900      -0.01629200
C       -2.32448000       4.56294000      13.80000000       0.01141600      -0.00044400       0.02755100
C        0.46490000       1.34206000      13.80000000      -0.08498100      -0.20907800       0.10363600
C       -0.00003000       3.75770000      13.80000000      -0.14477000       0.18065300       0.10387400
C        2.78935000       0.53682000      13.80000000       0.07951900      -0.14778900      -0.01628300
C        2.32448000       2.95247000      13.80000000       0.23462000       0.06336800       0.10378600
C        1.85954000       5.36812000      13.80000000       0.07008900       0.15051600      -0.01631100
C        4.64892000       2.14723000      13.80000000      -0.15083300      -0.02883200      -0.01628100
C        0.00000000       0.00000000      10.20000000      -0.07449300      -0.15723400       0.01628200
C       -0.46487000       2.41565000      10.20000000      -0.23243600      -0.03337500      -0.10379200
C       -0.92980000       4.83129000      10.20000000      -0.09693200       0.13765500       0.01628300
C        1.85958000       1.61041000      10.20000000       0.15226700      -0.18514100      -0.10386000
C        1.39467000       4.02611000      10.20000000       0.07513300       0.21285900      -0.10402100
C        4.18405000       0.80523000      10.20000000      -0.00245600       0.00535800      -0.02756000
C        3.71912000       3.22088000      10.20000000       0.16419000       0.01150900       0.01629200
C       -2.32448000       4.56294000      10.20000000       0.01141600      -0.00044400      -0.02755100
C        0.46490000       1.34206000      10.20000000      -0.08498100      -0.20907800      -0.10363600
C       -0.00003000       3.75770000      10.20000000      -0.14477000       0.18065300      -0.10387400
C        2.78935000       0.53682000      10.20000000       0.07951900      -0.14778900       0.01628300
C        2.32448000       2.95247000      10.20000000       0.23462000       0.06336800      -0.10378600
C        1.85954000       5.36812000      10.20000000       0.07008900       0.15051600       0.01631100
C        4.64892000       2.14723000      10.20000000      -0.15083300      -0.02883200       0.01628100
Li       0.92980000       2.68406000      12.00000000      -0.00066400      -0.00005200       0.00000000
29
Lattice="6.508500099 0.0 0.0 -3.25425005 5.636526426 0.0 0.0 0.0 24.0" Properties=species:S:1:pos:R:3:forces:R:3 stress="-0.00792281564666806 2.064691218842182e-05 -0.0 2.064691218842182e-05 -0.007931990665083108 -0.0 -0.0 -0.0 0.0019498412094168041" free_energy=-262.10641555 energy=-262.10416444 pbc="T T T"
C        0.00000000       0.00000000      13.79921000      -0.07492200      -0.15812700       0.01263800
C       -0.46487000       2.41565000      13.80501000      -0.22987600      -0.03223700       0.08199600
C       -0.92980000       4.83129000      13.79921000      -0.09901500       0.13665000       0.01644000
C        1.85958000       1.61041000      13.80501000       0.15290400      -0.18225000       0.08201600
C        1.39467000       4.02611000      13.80502000       0.07212500       0.21082300       0.08199000
C        4.18405000       0.80523000      13.80133000      -0.00430400       0.00511800      -0.01452100
C        3.71912000       3.22088000      13.79921000       0.16445200       0.01008900       0.01643300
C       -2.32448000       4.56294000      13.80133000       0.01089900      -0.00090900      -0.01086400
C        0.46490000       1.34206000      13.80500000      -0.08100100      -0.20359200       0.08455000
C       -0.00003000       3.75770000      13.80501000      -0.14404800       0.17858600       0.07952800
C        2.78935000       0.53682000      13.79921000       0.07939600      -0.14837500       0.01284200
C        2.32448000       2.95247000      13.80501000       0.23616600       0.06359300       0.08014400
C        1.85954000       5.36812000      13.79921000       0.06947100       0.15047500       0.01288700
C        4.64892000       2.14723000      13.79921000      -0.15167800      -0.02959900       0.01281400
C        0.00000000       0.00000000      10.20079000      -0.07492200      -0.15812700      -0.01263800
C       -0.46487000       2.41565000      10.19499000      -0.22987600      -0.03223700      -0.08199600
C       -0.92980000       4.83129000      10.20079000      -0.09901500       0.13665000      -0.01644000
C        1.85958000       1.61041000      10.19499000       0.15290400      -0.18225000      -0.08201600
C        1.39467000       4.02611000      10.19498000       0.07212500       0.21082300      -0.08199000
C        4.18405000       0.80523000      10.19867000      -0.00430400       0.00511800       0.01452100
C        3.71912000       3.22088000      10.20079000       0.16445200       0.01008900      -0.01643300
C       -2.32448000       4.56294000      10.19867000       0.01089900      -0.00090900       0.01086400
C        0.46490000       1.34206000      10.19500000      -0.08100100      -0.20359200      -0.08455000
C       -0.00003000       3.75770000      10.19499000      -0.14404800       0.17858600      -0.07952800
C        2.78935000       0.53682000      10.20079000       0.07939600      -0.14837500      -0.01284200
C        2.32448000       2.95247000      10.19499000       0.23616600       0.06359300      -0.08014400
C        1.85954000       5.36812000      10.20079000       0.06947100       0.15047500      -0.01288700
C        4.64892000       2.14723000      10.20079000      -0.15167800      -0.02959900      -0.01281400
Li       0.92977000       2.68405000      12.00000000      -0.00114000      -0.00049100      -0.00000000
29
Lattice="6.508500099 0.0 0.0 -3.25425005 5.636526426 0.0 0.0 0.0 24.0" Properties=species:S:1:pos:R:3:forces:R:3 stress="-0.007950808815097648 2.5371734596715442e-05 -0.0 2.5371734596715442e-05 -0.007933345072563427 -0.0 -0.0 -0.0 0.0020834469537654612" free_energy=-262.11204109 energy=-262.10981089 pbc="T T T"
C        0.00000000       0.00000000      13.80020000      -0.07448000      -0.15865200       0.02319300
C       -0.46487000       2.41565000      13.81140000      -0.23289600      -0.02436400       0.05477000
C       -0.92980000       4.83129000      13.80050000      -0.09882000       0.13585700       0.01387700
C        1.85958000       1.61041000      13.81141000       0.15651800      -0.17095400       0.05336800
C        1.39467000       4.02611000      13.81141000       0.06711000       0.19971500       0.05274600
C        4.18405000       0.80523000      13.80020000      -0.00271100       0.00416500       0.01120800
C        3.71912000       3.22088000      13.80050000       0.16455200       0.00947000       0.01368300
C       -2.32448000       4.56294000      13.80048000       0.01116800      -0.00162600       0.01172300
C        0.46490000       1.34206000      13.81160000      -0.07717500      -0.20509500       0.06547400
C       -0.00003000       3.75770000      13.81122000      -0.14254100       0.17651000       0.06516900
C        2.78935000       0.53682000      13.80022000       0.07958300      -0.14890800       0.02178200
C        2.32448000       2.95247000      13.81126000       0.23189600       0.06537600       0.06748300
C        1.85954000       5.36812000      13.80022000       0.06946800       0.14963000       0.01996600
C        4.64892000       2.14723000      13.80021000      -0.15124300      -0.03040400       0.02175300
C        0.00000000       0.00000000      10.19980000      -0.07448000      -0.15865200      -0.02319300
C       -0.46487000       2.41565000      10.18860000      -0.23289600      -0.02436400      -0.05477000
C       -0.92980000       4.83129000      10.19950000      -0.09882000       0.13585700      -0.01387700
C        1.85958000       1.61041000      10.18859000       0.15651800      -0.17095400      -0.05336800
C        1.39467000       4.02611000      10.18859000       0.06711000       0.19971500      -0.05274600
C        4.18405000       0.80523000      10.19980000      -0.00271100       0.00416500      -0.01120800
C        3.71912000       3.22088000      10.19950000       0.16455200       0.00947000      -0.01368300
C       -2.32448000       4.56294000      10.19952000       0.01116800      -0.00162600      -0.01172300
C        0.46490000       1.34206000      10.18840000      -0.07717500      -0.20509500      -0.06547400
C       -0.00003000       3.75770000      10.18878000      -0.14254100       0.17651000      -0.06516900
C        2.78935000       0.53682000      10.19978000       0.07958300      -0.14890800      -0.02178200
C        2.32448000       2.95247000      10.18874000       0.23189600       0.06537600      -0.06748300
C        1.85954000       5.36812000      10.19978000       0.06946800       0.14963000      -0.01996600
C        4.64892000       2.14723000      10.19979000      -0.15124300      -0.03040400      -0.02175300
Li       0.92968000       2.68402000      12.00000000      -0.00086100      -0.00143900       0.00000000
29
Lattice="6.508500099 0.0 0.0 -3.25425005 5.636526426 0.0 0.0 0.0 24.0" Properties=species:S:1:pos:R:3:forces:R:3 stress="-0.00791785988842211 1.827513872058618e-05 -0.0 1.827513872058618e-05 -0.007897200493215437 -0.0 -0.0 -0.0 0.0023267222549650125" free_energy=-262.11869952 energy=-262.11653685 pbc="T T T"
C        0.00000000       0.00000000      13.80337000      -0.07373800      -0.15759700       0.04295300
C       -0.46487000       2.41565000      13.82152000      -0.22193600      -0.02385000       0.04913900
C       -0.92980000       4.83129000      13.80284000      -0.09637100       0.13302100       0.03585300
C        1.85958000       1.61041000      13.82138000       0.15999100      -0.17409600       0.05305000
C        1.39467000       4.02611000      13.82131000       0.06122300       0.20457900       0.04834100
C        4.18405000       0.80523000      13.80068000      -0.00400300       0.00399900       0.03534000
C        3.71912000       3.22088000      13.80282000       0.16251400       0.00719400       0.03758600
C       -2.32448000       4.56294000      13.80121000       0.01115200      -0.00203100       0.02893300
C        0.46490000       1.34206000      13.82301000      -0.08141100      -0.20958500       0.01787400
C       -0.00003000       3.75770000      13.82234000      -0.14131000       0.17486900       0.02023000
C        2.78935000       0.53682000      13.80324000       0.08306000      -0.14406300       0.02237100
C        2.32448000       2.95247000      13.82267000       0.23432300       0.06993300       0.01355600
C        1.85954000       5.36812000      13.80305000       0.06294000       0.14876800       0.02954400
C        4.64892000       2.14723000      13.80323000      -0.15608800      -0.03016400       0.02350300
C        0.00000000       0.00000000      10.19663000      -0.07373800      -0.15759700      -0.04295300
C       -0.46487000       2.41565000      10.17848000      -0.22193600      -0.02385000      -0.04913900
C       -0.92980000       4.83129000      10.19716000      -0.09637100       0.13302100      -0.03585300
C        1.85958000       1.61041000      10.17862000       0.15999100      -0.17409600      -0.05305000
C        1.39467000       4.02611000      10.17869000       0.06122300       0.20457900      -0.04834100
C        4.18405000       0.80523000      10.19932000      -0.00400300       0.00399900      -0.03534000
C        3.71912000       3.22088000      10.19718000       0.16251400       0.00719400      -0.03758600
C       -2.32448000       4.56294000      10.19879000       0.01115200      -0.00203100      -0.02893300
C        0.46490000       1.34206000      10.17699000      -0.08141100      -0.20958500      -0.01787400
C       -0.00003000       3.75770000      10.17766000      -0.14131000       0.17486900      -0.02023000
C        2.78935000       0.53682000      10.19676000       0.08306000      -0.14406300      -0.02237100
C        2.32448000       2.95247000      10.17733000       0.23432300       0.06993300      -0.01355600
C        1.85954000       5.36812000      10.19695000       0.06294000       0.14876800      -0.02954400
C        4.64892000       2.14723000      10.19677000      -0.15608800      -0.03016400      -0.02350300
Li       0.92953000       2.68384000      12.00000000      -0.00069300      -0.00195300       0.00000000
29
Lattice="6.508500099 0.0 0.0 -3.25425005 5.636526426 0.0 0.0 0.0 24.0" Properties=species:S:1:pos:R:3:forces:R:3 stress="-0.007937970030825707 2.94536815650431e-05 -0.0 2.94536815650431e-05 -0.007914065050873572 -0.0 -0.0 -0.0 0.0023821593390211076" free_energy=-262.12005524 energy=-262.11791273 pbc="T T T"
C        0.00000000       0.00000000      13.80464000      -0.07385200      -0.15702000       0.04087100
C       -0.46487000       2.41565000      13.82382000      -0.22185500      -0.02321700       0.04173700
C       -0.92980000       4.83129000      13.80388000      -0.09656100       0.13341500       0.03583000
C        1.85958000       1.61041000      13.82374000       0.15944400      -0.17337400       0.04394800
C        1.39467000       4.02611000      13.82357000       0.06096600       0.20481800       0.04141000
C        4.18405000       0.80523000      13.80145000      -0.00424900       0.00459000       0.03575200
C        3.71912000       3.22088000      13.80389000       0.16219100       0.00782000       0.03652500
C       -2.32448000       4.56294000      13.80187000       0.01520400      -0.00744500       0.03261800
C        0.46490000       1.34206000      13.82480000      -0.08035100      -0.20707100       0.02336400
C       -0.00003000       3.75770000      13.82414000      -0.14125700       0.17503500       0.02562100
C        2.78935000       0.53682000      13.80406000       0.07688400      -0.14410300       0.02771000
C        2.32448000       2.95247000      13.82436000       0.23356700       0.07217600       0.01913700
C        1.85954000       5.36812000      13.80400000       0.06244700       0.14891500       0.03654700
C        4.64892000       2.14723000      13.80408000      -0.15209900      -0.03385200       0.02844100
C        0.00000000       0.00000000      10.19536000      -0.07385200      -0.15702000      -0.04087100
C       -0.46487000       2.41565000      10.17618000      -0.22185500      -0.02321700      -0.04173700
C       -0.92980000       4.83129000      10.19612000      -0.09656100       0.13341500      -0.03583000
C        1.85958000       1.61041000      10.17626000       0.15944400      -0.17337400      -0.04394800
C        1.39467000       4.02611000      10.17643000       0.06096600       0.20481800      -0.04141000
C        4.18405000       0.80523000      10.19855000      -0.00424900       0.00459000      -0.03575200
C        3.71912000       3.22088000      10.19611000       0.16219100       0.00782000      -0.03652500
C       -2.32448000       4.56294000      10.19813000       0.01520400      -0.00744500      -0.03261800
C        0.46490000       1.34206000      10.17520000      -0.08035100      -0.20707100      -0.02336400
C       -0.00003000       3.75770000      10.17586000      -0.14125700       0.17503500      -0.02562100
C        2.78935000       0.53682000      10.19594000       0.07688400      -0.14410300      -0.02771000
C        2.32448000       2.95247000      10.17564000       0.23356700       0.07217600      -0.01913700
C        1.85954000       5.36812000      10.19600000       0.06244700       0.14891500      -0.03654700
C        4.64892000       2.14723000      10.19592000      -0.15209900      -0.03385200      -0.02844100
Li       0.92950000       2.68377000      12.00000000      -0.00095600      -0.00137600       0.00000000
29
Lattice="6.508500099 0.0 0.0 -3.25425005 5.636526426 0.0 0.0 0.0 24.0" Properties=species:S:1:pos:R:3:forces:R:3 stress="-0.007901950281660233 2.4778791229756538e-05 -0.0 2.4778791229756538e-05 -0.007878881663930968 -0.0 -0.0 -0.0 0.00243089928378513" free_energy=-262.12138892 energy=-262.11926718 pbc="T T T"
C        0.00000000       0.00000000      13.80648000      -0.07398100      -0.15736500       0.01615400
C       -0.46487000       2.41565000      13.82546000      -0.22082000      -0.02367400       0.03151300
C       -0.92980000       4.83129000      13.80551000      -0.09420400       0.13248700       0.03137400
C        1.85958000       1.61041000      13.82548000       0.15869600      -0.17408000       0.02987700
C        1.39467000       4.02611000      13.82520000       0.06123200       0.20564900       0.03248900
C        4.18405000       0.80523000      13.80315000      -0.00571900       0.00572100       0.02778500
C        3.71912000       3.22088000      13.80555000       0.16272800       0.00573700       0.03009500
C       -2.32448000       4.56294000      13.80343000       0.01354300      -0.00650100       0.03697300
C        0.46490000       1.34206000      13.82560000      -0.08003900      -0.20618000       0.03786200
C       -0.00003000       3.75770000      13.82506000      -0.14091100       0.17470300       0.03667700
C        2.78935000       0.53682000      13.80532000       0.07552200      -0.14396100       0.03507700
C        2.32448000       2.95247000      13.82496000       0.23279300       0.07233600       0.03477900
C        1.85954000       5.36812000      13.80569000       0.06273200       0.14988400       0.03942300
C        4.64892000       2.14723000      13.80537000      -0.15101700      -0.03421400       0.03501300
C        0.00000000       0.00000000      10.19352000      -0.07398100      -0.15736500      -0.01615400
C       -0.46487000       2.41565000      10.17454000      -0.22082000      -0.02367400      -0.03151300
C       -0.92980000       4.83129000      10.19449000      -0.09420400       0.13248700      -0.03137400
C        1.85958000       1.61041000      10.17452000       0.15869600      -0.17408000      -0.02987700
C        1.39467000       4.02611000      10.17480000       0.06123200       0.20564900      -0.03248900
C        4.18405000       0.80523000      10.19685000      -0.00571900       0.00572100      -0.02778500
C        3.71912000       3.22088000      10.19445000       0.16272800       0.00573700      -0.03009500
C       -2.32448000       4.56294000      10.19657000       0.01354300      -0.00650100      -0.03697300
C        0.46490000       1.34206000      10.17440000      -0.08003900      -0.20618000      -0.03786200
C       -0.00003000       3.75770000      10.17494000      -0.14091100       0.17470300      -0.03667700
C        2.78935000       0.53682000      10.19468000       0.07552200      -0.14396100      -0.03507700
C        2.32448000       2.95247000      10.17504000       0.23279300       0.07233600      -0.03477900
C        1.85954000       5.36812000      10.19431000       0.06273200       0.14988400      -0.03942300
C        4.64892000       2.14723000      10.19463000      -0.15101700      -0.03421400      -0.03501300
Li       0.92946000       2.68372000      12.00000000      -0.00111000      -0.00108800       0.00000000
29
Lattice="6.508500099 0.0 0.0 -3.25425005 5.636526426 0.0 0.0 0.0 24.0" Properties=species:S:1:pos:R:3:forces:R:3 stress="-0.007889710682264376 2.8966843853224202e-05 -0.0 2.8966843853224202e-05 -0.007877589671541911 -0.0 -0.0 -0.0 0.0024689412819073886" free_energy=-262.12301974 energy=-262.12092699 pbc="T T T"
C        0.00000000       0.00000000      13.80614000      -0.07468400      -0.15558800       0.05634700
C       -0.46487000       2.41565000      13.82701000      -0.22049700      -0.02111400       0.03405500
C       -0.92980000       4.83129000      13.80777000      -0.09011800       0.13478800       0.03849400
C        1.85958000       1.61041000      13.82689000       0.15843300      -0.17211300       0.03434100
C        1.39467000       4.02611000      13.82691000       0.05873000       0.20583800       0.03146100
C        4.18405000       0.80523000      13.80508000      -0.00677800       0.00679800       0.04056300
C        3.71912000       3.22088000      13.80770000       0.16759800       0.00046200       0.03689200
C       -2.32448000       4.56294000      13.80653000       0.01106800      -0.00714200       0.01184100
C        0.46490000       1.34206000      13.82737000      -0.07917400      -0.20534700       0.01921000
C       -0.00003000       3.75770000      13.82655000      -0.14120700       0.17521900       0.04477100
C        2.78935000       0.53682000      13.80783000       0.07588300      -0.14593200       0.02288700
C        2.32448000       2.95247000      13.82650000       0.23098700       0.06331800       0.03456300
C        1.85954000       5.36812000      13.80814000       0.06091800       0.15149800       0.01814800
C        4.64892000       2.14723000      13.80788000      -0.15013500      -0.03083200       0.02293500
C        0.00000000       0.00000000      10.19386000      -0.07468400      -0.15558800      -0.05634700
C       -0.46487000       2.41565000      10.17299000      -0.22049700      -0.02111400      -0.03405500
C       -0.92980000       4.83129000      10.19223000      -0.09011800       0.13478800      -0.03849400
C        1.85958000       1.61041000      10.17311000       0.15843300      -0.17211300      -0.03434100
C        1.39467000       4.02611000      10.17309000       0.05873000       0.20583800      -0.03146100
C        4.18405000       0.80523000      10.19492000      -0.00677800       0.00679800      -0.04056300
C        3.71912000       3.22088000      10.19230000       0.16759800       0.00046200      -0.03689200
C       -2.32448000       4.56294000      10.19347000       0.01106800      -0.00714200      -0.01184100
C        0.46490000       1.34206000      10.17263000      -0.07917400      -0.20534700      -0.01921000
C       -0.00003000       3.75770000      10.17345000      -0.14120700       0.17521900      -0.04477100
C        2.78935000       0.53682000      10.19217000       0.07588300      -0.14593200      -0.02288700
C        2.32448000       2.95247000      10.17350000       0.23098700       0.06331800      -0.03456300
C        1.85954000       5.36812000      10.19186000       0.06091800       0.15149800      -0.01814800
C        4.64892000       2.14723000      10.19212000      -0.15013500      -0.03083200      -0.02293500
Li       0.92940000       2.68359000      12.00000000      -0.00205200       0.00029400       0.00000000
29
Lattice="6.508500099 0.0 0.0 -3.25425005 5.636526426 0.0 0.0 0.0 24.0" Properties=species:S:1:pos:R:3:forces:R:3 stress="-0.007814718950116888 3.101405884651391e-05 -0.0 3.101405884651391e-05 -0.007797985464150396 -0.0 -0.0 -0.0 0.0027003202667130067" free_energy=-262.12847695 energy=-262.1265221 pbc="T T T"
C        0.00000000       0.00000000      13.81063000      -0.07309600      -0.15441800       0.09819100
C       -0.46487000       2.41565000      13.83464000      -0.21916800      -0.02179400       0.02821800
C       -0.92980000       4.83129000      13.81601000      -0.08595000       0.13646200       0.02480300
C        1.85958000       1.61041000      13.83426000       0.15495100      -0.16805600       0.02793000
C        1.39467000       4.02611000      13.83461000       0.06196100       0.20307500       0.02545800
C        4.18405000       0.80523000      13.81251000      -0.01735500       0.00626500       0.03083000
C        3.71912000       3.22088000      13.81562000       0.17008000      -0.00166500       0.02335900
C       -2.32448000       4.56294000      13.81412000       0.00705700      -0.00564900      -0.00072500
C        0.46490000       1.34206000      13.83419000      -0.08310700      -0.20900300       0.00475800
C       -0.00003000       3.75770000      13.83477000      -0.13814200       0.17372500       0.02170100
C        2.78935000       0.53682000      13.81534000       0.07388200      -0.14199600       0.02335500
C        2.32448000       2.95247000      13.83396000       0.23398500       0.05999300       0.02574000
C        1.85954000       5.36812000      13.81522000       0.06489400       0.15663600       0.00755500
C        4.64892000       2.14723000      13.81539000      -0.14957500      -0.03477200       0.02273000
C        0.00000000       0.00000000      10.18937000      -0.07309600      -0.15441800      -0.09819100
C       -0.46487000       2.41565000      10.16536000      -0.21916800      -0.02179400      -0.02821800
C       -0.92980000       4.83129000      10.18399000      -0.08595000       0.13646200      -0.02480300
C        1.85958000       1.61041000      10.16574000       0.15495100      -0.16805600      -0.02793000
C        1.39467000       4.02611000      10.16539000       0.06196100       0.20307500      -0.02545800
C        4.18405000       0.80523000      10.18749000      -0.01735500       0.00626500      -0.03083000
C        3.71912000       3.22088000      10.18438000       0.17008000      -0.00166500      -0.02335900
C       -2.32448000       4.56294000      10.18588000       0.00705700      -0.00564900       0.00072500
C        0.46490000       1.34206000      10.16581000      -0.08310700      -0.20900300      -0.00475800
C       -0.00003000       3.75770000      10.16523000      -0.13814200       0.17372500      -0.02170100
C        2.78935000       0.53682000      10.18466000       0.07388200      -0.14199600      -0.02335500
C        2.32448000       2.95247000      10.16604000       0.23398500       0.05999300      -0.02574000
C        1.85954000       5.36812000      10.18478000       0.06489400       0.15663600      -0.00755500
C        4.64892000       2.14723000      10.18461000      -0.14957500      -0.03477200      -0.02273000
Li       0.92911000       2.68331000      12.00000000      -0.00083100       0.00239200       0.00000000
29
Lattice="6.508500099 0.0 0.0 -3.25425005 5.636526426 0.0 0.0 0.0 24.0" Properties=species:S:1:pos:R:3:forces:R:3 stress="-0.007805481516610582 3.406615680907082e-05 -0.0 3.406615680907082e-05 -0.007799083969756551 -0.0 -0.0 -0.0 0.0027032100854382907" free_energy=-262.12929262 energy=-262.12735345 pbc="T T T"
C        0.00000000       0.00000000      13.81433000      -0.07287400      -0.15561700       0.07764800
C       -0.46487000       2.41565000      13.83319000      -0.21764700      -0.02212800       0.03810600
C       -0.92980000       4.83129000      13.81881000      -0.08841700       0.13030400       0.02168700
C        1.85958000       1.61041000      13.83249000       0.15448100      -0.16733000       0.04719800
C        1.39467000       4.02611000      13.83333000       0.06340200       0.20292000       0.03234000
C        4.18405000       0.80523000      13.81620000      -0.01869200       0.00787000       0.02937300
C        3.71912000       3.22088000      13.81815000       0.16751200      -0.00177000       0.02948800
C       -2.32448000       4.56294000      13.81785000       0.00599300      -0.00841200      -0.00446400
C        0.46490000       1.34206000      13.83203000      -0.07962300      -0.20047800       0.02962800
C       -0.00003000       3.75770000      13.83305000      -0.13690500       0.17333800       0.03459600
C        2.78935000       0.53682000      13.81897000       0.07110000      -0.14339400       0.00185500
C        2.32448000       2.95247000      13.83289000       0.23407300       0.06018700       0.02866100
C        1.85954000       5.36812000      13.81755000       0.06419800       0.16069200       0.00972800
C        4.64892000       2.14723000      13.81894000      -0.14681900      -0.03778900       0.00212800
C        0.00000000       0.00000000      10.18567000      -0.07287400      -0.15561700      -0.07764800
C       -0.46487000       2.41565000      10.16681000      -0.21764700      -0.02212800      -0.03810600
C       -0.92980000       4.83129000      10.18119000      -0.08841700       0.13030400      -0.02168700
C        1.85958000       1.61041000      10.16751000       0.15448100      -0.16733000      -0.04719800
C        1.39467000       4.02611000      10.16667000       0.06340200       0.20292000      -0.03234000
C        4.18405000       0.80523000      10.18380000      -0.01869200       0.00787000      -0.02937300
C        3.71912000       3.22088000      10.18185000       0.16751200      -0.00177000      -0.02948800
C       -2.32448000       4.56294000      10.18215000       0.00599300      -0.00841200       0.00446400
C        0.46490000       1.34206000      10.16797000      -0.07962300      -0.20047800      -0.02962800
C       -0.00003000       3.75770000      10.16695000      -0.13690500       0.17333800      -0.03459600
C        2.78935000       0.53682000      10.18103000       0.07110000      -0.14339400      -0.00185500
C        2.32448000       2.95247000      10.16711000       0.23407300       0.06018700      -0.02866100