29
Lattice="6.508500099 0.0 0.0 -3.25425005 5.636526426 0.0 0.0 0.0 24.0" Properties=species:S:1:pos:R:3:forces:R:3 stress="-0.007946339894563515 1.886184057841921e-05 -0.0 1.886184057841921e-05 -0.007939761343944834 -0.0 -0.0 -0.0 0.005266279566473125" free_energy=-262.14811622 energy=-262.14763669 pbc="T T T"
C        0.00000000       0.00000000      13.95000000      -0.06900300      -0.15273000      -0.02319400
C       -0.46487000       2.41565000      13.95000000      -0.17835300      -0.02912700      -0.00628500
C       -0.92980000       4.83129000      13.95000000      -0.10420800       0.12338400      -0.03279700
C        1.85958000       1.61041000      13.95000000       0.12314000      -0.15249400      -0.00748400
C        1.39467000       4.02611000      13.95000000       0.05751900       0.18190600      -0.00624600
C        4.18405000       0.80523000      13.95000000      -0.00094200       0.00568000       0.00591000
C        3.71912000       3.22088000      13.95000000       0.15654600       0.01537900      -0.03408300
C       -2.32448000       4.56294000      13.95000000       0.00968600       0.01505600      -0.00066900
C        0.46490000       1.34206000      13.95000000      -0.08227700      -0.17692300      -0.01409200
C       -0.00003000       3.75770000      13.95000000      -0.11597700       0.14643400      -0.01128700
C        2.78935000       0.53682000      13.95000000       0.07654500      -0.13393900      -0.03444800
C        2.32448000       2.95247000      13.95000000       0.19776500       0.05415000      -0.00782000
C        1.85954000       5.36812000      13.95000000       0.07893400       0.13979300      -0.04066200
C        4.64892000       2.14723000      13.95000000      -0.14910300      -0.03655400      -0.03444400
C        0.00000000       0.00000000      10.05000000      -0.06900300      -0.15273000       0.02319400
C       -0.46487000       2.41565000      10.05000000      -0.17835300      -0.02912700       0.00628500
C       -0.92980000       4.83129000      10.05000000      -0.10420800       0.12338400       0.03279700
C        1.85958000       1.61041000      10.05000000       0.12314000      -0.15249400       0.00748400
C        1.39467000       4.02611000      10.05000000       0.05751900       0.18190600       0.00624600
C        4.18405000       0.80523000      10.05000000      -0.00094200       0.00568000      -0.00591000
C        3.71912000       3.22088000      10.05000000       0.15654600       0.01537900       0.03408300
C       -2.32448000       4.56294000      10.05000000       0.00968600       0.01505600       0.00066900
C        0.46490000       1.34206000      10.05000000      -0.08227700      -0.17692300       0.01409200
C       -0.00003000       3.75770000      10.05000000      -0.11597700       0.14643400       0.01128700
C        2.78935000       0.53682000      10.05000000       0.07654500      -0.13393900       0.03444800
C        2.32448000       2.95247000      10.05000000       0.19776500       0.05415000       0.00782000
C        1.85954000       5.36812000      10.05000000       0.07893400       0.13979300       0.04066200
C        4.64892000       2.14723000      10.05000000      -0.14910300      -0.03655400       0.03444400
Li       0.92980000       2.68406000      12.00000000      -0.00054500      -0.00003100       0.00000000
29
Lattice="6.508500099 0.0 0.0 -3.25425005 5.636526426 0.0 0.0 0.0 24.0" Properties=species:S:1:pos:R:3:forces:R:3 stress="-0.007939517925088926 2.4934828957903618e-05 -0.0 2.4934828957903618e-05 -0.007923246310797747 -0.0 -0.0 -0.0 0.00528062879595353" free_energy=-262.14864166 energy=-262.14816226 pbc="T T T"
C        0.00000000       0.00000000      13.94888000      -0.06898400      -0.15281700      -0.02281000
C       -0.46487000       2.41565000      13.94970000      -0.17851600      -0.02911200      -0.01472200
C       -0.92980000       4.83129000      13.94842000      -0.10424900       0.12352200      -0.02462300
C        1.85958000       1.61041000      13.94964000       0.12326200      -0.15250100      -0.01391500
C        1.39467000       4.02611000      13.94970000       0.05760800       0.18205300      -0.01481200
C        4.18405000       0.80523000      13.95029000      -0.00095100       0.00577900      -0.02659500
C        3.71912000       3.22088000      13.94836000       0.15661000       0.01550000      -0.02379800
C       -2.32448000       4.56294000      13.94997000       0.00965100       0.01515400      -0.02355000
C        0.46490000       1.34206000      13.94932000      -0.08269100      -0.17426400      -0.00708400
C       -0.00003000       3.75770000      13.94946000      -0.11615800       0.14657500      -0.01305300
C        2.78935000       0.53682000      13.94834000       0.07907000      -0.13735100      -0.00684900
C        2.32448000       2.95247000      13.94962000       0.19619800       0.05198400      -0.00322700
C        1.85954000       5.36812000      13.94804000       0.07669300       0.13815900      -0.01675100
C        4.64892000       2.14723000      13.94834000      -0.14730300      -0.03272100      -0.00689500
C        0.00000000       0.00000000      10.05112000      -0.06898400      -0.15281700       0.02281000
C       -0.46487000       2.41565000      10.05030000      -0.17851600      -0.02911200       0.01472200
C       -0.92980000       4.83129000      10.05158000      -0.10424900       0.12352200       0.02462300
C        1.85958000       1.61041000      10.05036000       0.12326200      -0.15250100       0.01391500
C        1.39467000       4.02611000      10.05030000       0.05760800       0.18205300       0.01481200
C        4.18405000       0.80523000      10.04971000      -0.00095100       0.00577900       0.02659500
C        3.71912000       3.22088000      10.05164000       0.15661000       0.01550000       0.02379800
C       -2.32448000       4.56294000      10.05003000       0.00965100       0.01515400       0.02355000
C        0.46490000       1.34206000      10.05068000      -0.08269100      -0.17426400       0.00708400
C       -0.00003000       3.75770000      10.05054000      -0.11615800       0.14657500       0.01305300
C        2.78935000       0.53682000      10.05166000       0.07907000      -0.13735100       0.00684900
C        2.32448000       2.95247000      10.05038000       0.19619800       0.05198400       0.00322700
C        1.85954000       5.36812000      10.05196000       0.07669300       0.13815900       0.01675100
C        4.64892000       2.14723000      10.05166000      -0.14730300      -0.03272100       0.00689500
Li       0.92978000       2.68406000      12.00000000      -0.00047900       0.00008000       0.00000000
29
Lattice="6.508500099 0.0 0.0 -3.25425005 5.636526426 0.0 0.0 0.0 24.0" Properties=species:S:1:pos:R:3:forces:R:3 stress="-0.007934044121585526 2.808679106647466e-05 -0.0 2.808679106647466e-05 -0.007926260959705549 -0.0 -0.0 -0.0 0.005249514872961002" free_energy=-262.14897922 energy=-262.14849987 pbc="T T T"
C        0.00000000       0.00000000      13.94791000      -0.06913700      -0.15286400      -0.02044300
C       -0.46487000       2.41565000      13.94907000      -0.17877600      -0.02924300      -0.01119200
C       -0.92980000       4.83129000      13.94737000      -0.10463100       0.12508000      -0.01675500
C        1.85958000       1.61041000      13.94904000       0.12322900      -0.15257500      -0.00784600
C        1.39467000       4.02611000      13.94907000       0.05757000       0.18203200      -0.01286700
C        4.18405000       0.80523000      13.94915000      -0.00106400       0.00572000      -0.01719600
C        3.71912000       3.22088000      13.94734000       0.15763600       0.01635800      -0.01357900
C       -2.32448000       4.56294000      13.94896000       0.01213400       0.01407600      -0.02286700
C        0.46490000       1.34206000      13.94902000      -0.08289300      -0.17431400      -0.01332100
C       -0.00003000       3.75770000      13.94890000      -0.11631900       0.14661800      -0.01704100
C        2.78935000       0.53682000      13.94805000       0.07894700      -0.13752600      -0.01766500
C        2.32448000       2.95247000      13.94948000       0.19613600       0.05192300      -0.01155500
C        1.85954000       5.36812000      13.94732000       0.07491500       0.13756600      -0.01862000
C        4.64892000       2.14723000      13.94804000      -0.14751200      -0.03283100      -0.01767000
C        0.00000000       0.00000000      10.05209000      -0.06913700      -0.15286400       0.02044300
C       -0.46487000       2.41565000      10.05093000      -0.17877600      -0.02924300       0.01119200
C       -0.92980000       4.83129000      10.05263000      -0.10463100       0.12508000       0.01675500
C        1.85958000       1.61041000      10.05096000       0.12322900      -0.15257500       0.00784600
C        1.39467000       4.02611000      10.05093000       0.05757000       0.18203200       0.01286700
C        4.18405000       0.80523000      10.05085000      -0.00106400       0.00572000       0.01719600
C        3.71912000       3.22088000      10.05266000       0.15763600       0.01635800       0.01357900
C       -2.32448000       4.56294000      10.05104000       0.01213400       0.01407600       0.02286700
C        0.46490000       1.34206000      10.05098000      -0.08289300      -0.17431400       0.01332100
C       -0.00003000       3.75770000      10.05110000      -0.11631900       0.14661800       0.01704100
C        2.78935000       0.53682000      10.05195000       0.07894700      -0.13752600       0.01766500
C        2.32448000       2.95247000      10.05052000       0.19613600       0.05192300       0.01155500
C        1.85954000       5.36812000      10.05268000       0.07491500       0.13756600       0.01862000
C        4.64892000       2.14723000      10.05196000      -0.14751200      -0.03283100       0.01767000
Li       0.92976000       2.68406000      12.00000000      -0.00047000      -0.00004200       0.00000000
29
Lattice="6.508500099 0.0 0.0 -3.25425005 5.636526426 0.0 0.0 0.0 24.0" Properties=species:S:1:pos:R:3:forces:R:3 stress="-0.007904078636272158 2.304365169276099e-05 -0.0 2.304365169276099e-05 -0.007917560295984068 -0.0 -0.0 -0.0 0.0052639452420600455" free_energy=-262.14940638 energy=-262.14892708 pbc="T T T"
C        0.00000000       0.00000000      13.94665000      -0.06909700      -0.15352900      -0.02123400
C       -0.46487000       2.41565000      13.94837000      -0.17888000      -0.02982000      -0.01477800
C       -0.92980000       4.83129000      13.94630000      -0.10457600       0.12469200      -0.02091800
C        1.85958000       1.61041000      13.94853000       0.12343500      -0.15319700      -0.01135200
C        1.39467000       4.02611000      13.94827000       0.05779300       0.18152300      -0.01544200
C        4.18405000       0.80523000      13.94805000      -0.00092600       0.00511500      -0.01820300
C        3.71912000       3.22088000      13.94645000       0.15784900       0.01578100      -0.01742100
C       -2.32448000       4.56294000      13.94757000       0.01372400       0.01236600      -0.01743800
C        0.46490000       1.34206000      13.94825000      -0.08283900      -0.17499600      -0.01453400
C       -0.00003000       3.75770000      13.94789000      -0.11633500       0.14615600      -0.00347600
C        2.78935000       0.53682000      13.94704000       0.08225600      -0.13616900      -0.01626600
C        2.32448000       2.95247000      13.94884000       0.19409200       0.05325400      -0.00999700
C        1.85954000       5.36812000      13.94620000       0.07439700       0.14076200      -0.01685000
C        4.64892000       2.14723000      13.94704000      -0.15077700      -0.03157100      -0.01618900
C        0.00000000       0.00000000      10.05335000      -0.06909700      -0.15352900       0.02123400
C       -0.46487000       2.41565000      10.05163000      -0.17888000      -0.02982000       0.01477800
C       -0.92980000       4.83129000      10.05370000      -0.10457600       0.12469200       0.02091800
C        1.85958000       1.61041000      10.05147000       0.12343500      -0.15319700       0.01135200
C        1.39467000       4.02611000      10.05173000       0.05779300       0.18152300       0.01544200
C        4.18405000       0.80523000      10.05195000      -0.00092600       0.00511500       0.01820300
C        3.71912000       3.22088000      10.05355000       0.15784900       0.01578100       0.01742100
C       -2.32448000       4.56294000      10.05243000       0.01372400       0.01236600       0.01743800
C        0.46490000       1.34206000      10.05175000      -0.08283900      -0.17499600       0.01453400
C       -0.00003000       3.75770000      10.05211000      -0.11633500       0.14615600       0.00347600
C        2.78935000       0.53682000      10.05296000       0.08225600      -0.13616900       0.01626600
C        2.32448000       2.95247000      10.05116000       0.19409200       0.05325400       0.00999700
C        1.85954000       5.36812000      10.05380000       0.07439700       0.14076200       0.01685000
C        4.64892000       2.14723000      10.05296000      -0.15077700      -0.03157100       0.01618900
Li       0.92973000       2.68406000      12.00000000      -0.00023200      -0.00073200      -0.00000000
29
Lattice="6.508500099 0.0 0.0 -3.25425005 5.636526426 0.0 0.0 0.0 24.0" Properties=species:S:1:pos:R:3:forces:R:3 stress="-0.007943749668276273 1.4686270973203306e-05 -0.0 1.4686270973203306e-05 -0.007940822400496235 -0.0 -0.0 -0.0 0.005201180626290163" free_energy=-262.14996325 energy=-262.14948402 pbc="T T T"
C        0.00000000       0.00000000      13.94467000      -0.06934400      -0.15353100      -0.00815400
C       -0.46487000       2.41565000      13.94709000      -0.18056200      -0.03062400      -0.00954500
C       -0.92980000       4.83129000      13.94443000      -0.10419700       0.12545700      -0.01593400
C        1.85958000       1.61041000      13.94755000       0.12208300      -0.15258700      -0.00982000
C        1.39467000       4.02611000      13.94691000       0.05922300       0.18133400      -0.00837500
C        4.18405000       0.80523000      13.94629000      -0.00086900       0.00369900      -0.01358400
C        3.71912000       3.22088000      13.94487000       0.15855000       0.01574500      -0.01581300
C       -2.32448000       4.56294000      13.94571000       0.01067300       0.01005800      -0.01762400
C        0.46490000       1.34206000      13.94700000      -0.07994300      -0.17469200      -0.01242900
C       -0.00003000       3.75770000      13.94705000      -0.11676400       0.14655300       0.00488700
C        2.78935000       0.53682000      13.94557000       0.08493100      -0.13445800      -0.01477300
C        2.32448000       2.95247000      13.94792000       0.19383800       0.05322200      -0.01098700
C        1.85954000       5.36812000      13.94457000       0.07638700       0.14000900      -0.02107800
C        4.64892000       2.14723000      13.94557000      -0.15386600      -0.02990000      -0.01463000
C        0.00000000       0.00000000      10.05533000      -0.06934400      -0.15353100       0.00815400
C       -0.46487000       2.41565000      10.05291000      -0.18056200      -0.03062400       0.00954500
C       -0.92980000       4.83129000      10.05557000      -0.10419700       0.12545700       0.01593400
C        1.85958000       1.61041000      10.05245000       0.12208300      -0.15258700       0.00982000
C        1.39467000       4.02611000      10.05309000       0.05922300       0.18133400       0.00837500
C        4.18405000       0.80523000      10.05371000      -0.00086900       0.00369900       0.01358400
C        3.71912000       3.22088000      10.05513000       0.15855000       0.01574500       0.01581300
C       -2.32448000       4.56294000      10.05429000       0.01067300       0.01005800       0.01762400
C        0.46490000       1.34206000      10.05300000      -0.07994300      -0.17469200       0.01242900
C       -0.00003000       3.75770000      10.05295000      -0.11676400       0.14655300      -0.00488700
C        2.78935000       0.53682000      10.05443000       0.08493100      -0.13445800       0.01477300
C        2.32448000       2.95247000      10.05208000       0.19383800       0.05322200       0.01098700
C        1.85954000       5.36812000      10.05543000       0.07638700       0.14000900       0.02107800
C        4.64892000       2.14723000      10.05443000      -0.15386600      -0.02990000       0.01463000
Li       0.92970000       2.68402000      12.00000000      -0.00027900      -0.00057200      -0.00000000
29
Lattice="6.508500099 0.0 0.0 -3.25425005 5.636526426 0.0 0.0 0.0 24.0" Properties=species:S:1:pos:R:3:forces:R:3 stress="-0.007968416112341763 1.5410286031805764e-05 -0.0 1.5410286031805764e-05 -0.007967879342556938 -0.0 -0.0 -0.0 0.005202110611149919" free_energy=-262.15059597 energy=-262.15011685 pbc="T T T"
C        0.00000000       0.00000000      13.94308000      -0.06922000      -0.15295000      -0.01772900
C       -0.46487000       2.41565000      13.94575000      -0.18139000      -0.02961600      -0.00565100
C       -0.92980000       4.83129000      13.94221000      -0.10268600       0.12346300      -0.01074200
C        1.85958000       1.61041000      13.94627000       0.12246400      -0.15187600      -0.01347500
C        1.39467000       4.02611000      13.94563000       0.05967000       0.18159300      -0.00893300
C        4.18405000       0.80523000      13.94419000      -0.00128900       0.00380800      -0.01662000
C        3.71912000       3.22088000      13.94274000       0.15624600       0.01291600      -0.01689700
C       -2.32448000       4.56294000      13.94308000       0.01121000       0.01117300      -0.00851700
C        0.46490000       1.34206000      13.94545000      -0.07904300      -0.17424000      -0.00825400
C       -0.00003000       3.75770000      13.94672000      -0.11669500       0.14746000      -0.01137900
C        2.78935000       0.53682000      13.94368000       0.08768300      -0.13244800      -0.01342400
C        2.32448000       2.95247000      13.94657000       0.19444800       0.04684400      -0.00659800
C        1.85954000       5.36812000      13.94189000       0.07488400       0.14134200      -0.00815700
C        4.64892000       2.14723000      13.94369000      -0.15617800      -0.02771700      -0.01332300
C        0.00000000       0.00000000      10.05692000      -0.06922000      -0.15295000       0.01772900
C       -0.46487000       2.41565000      10.05425000      -0.18139000      -0.02961600       0.00565100
C       -0.92980000       4.83129000      10.05779000      -0.10268600       0.12346300       0.01074200
C        1.85958000       1.61041000      10.05373000       0.12246400      -0.15187600       0.01347500
C        1.39467000       4.02611000      10.05437000       0.05967000       0.18159300       0.00893300
C        4.18405000       0.80523000      10.05581000      -0.00128900       0.00380800       0.01662000
C        3.71912000       3.22088000      10.05726000       0.15624600       0.01291600       0.01689700
C       -2.32448000       4.56294000      10.05692000       0.01121000       0.01117300       0.00851700
C        0.46490000       1.34206000      10.05455000      -0.07904300      -0.17424000       0.00825400
C       -0.00003000       3.75770000      10.05328000      -0.11669500       0.14746000       0.01137900
C        2.78935000       0.53682000      10.05632000       0.08768300      -0.13244800       0.01342400
C        2.32448000       2.95247000      10.05343000       0.19444800       0.04684400       0.00659800
C        1.85954000       5.36812000      10.05811000       0.07488400       0.14134200       0.00815700
C        4.64892000       2.14723000      10.05631000      -0.15617800      -0.02771700       0.01332300
Li       0.92965000       2.68398000      12.00000000      -0.00020200       0.00049700      -0.00000000
29
Lattice="6.508500099 0.0 0.0 -3.25425005 5.636526426 0.0 0.0 0.0 24.0" Properties=species:S:1:pos:R:3:forces:R:3 stress="-0.007962549093763434 8.60079957546713e-06 -0.0 8.60079957546713e-06 -0.0079646150332841 -0.0 -0.0 -0.0 0.005170035495752005" free_energy=-262.1525976 energy=-262.15211848 pbc="T T T"
C        0.00000000       0.00000000      13.93655000      -0.06947200      -0.15377300      -0.02103200
C       -0.46487000       2.41565000      13.94166000      -0.18064000      -0.02772300      -0.00915800
C       -0.92980000       4.83129000      13.93559000      -0.10398400       0.12304500       0.00226000
C        1.85958000       1.61041000      13.94201000       0.12725600      -0.15263300      -0.01595300
C        1.39467000       4.02611000      13.94120000       0.05726900       0.18214300      -0.01006700
C        4.18405000       0.80523000      13.93733000      -0.00182700       0.00659200      -0.01308700
C        3.71912000       3.22088000      13.93613000       0.15551700       0.01365600      -0.00701900
C       -2.32448000       4.56294000      13.93588000       0.01014700       0.00687800      -0.00611700
C        0.46490000       1.34206000      13.94087000      -0.07986900      -0.17547100      -0.01034200
C       -0.00003000       3.75770000      13.94377000      -0.11731400       0.14770700      -0.03896400
C        2.78935000       0.53682000      13.93783000       0.09030500      -0.13252800      -0.02727300
C        2.32448000       2.95247000      13.94283000       0.19534900       0.04362500      -0.02086400
C        1.85954000       5.36812000      13.93508000       0.07555800       0.14472700       0.00202100
C        4.64892000       2.14723000      13.93787000      -0.15818900      -0.02649100      -0.02601900
C        0.00000000       0.00000000      10.06345000      -0.06947200      -0.15377300       0.02103200
C       -0.46487000       2.41565000      10.05834000      -0.18064000      -0.02772300       0.00915800
C       -0.92980000       4.83129000      10.06441000      -0.10398400       0.12304500      -0.00226000
C        1.85958000       1.61041000      10.05799000       0.12725600      -0.15263300       0.01595300
C        1.39467000       4.02611000      10.05880000       0.05726900       0.18214300       0.01006700
C        4.18405000       0.80523000      10.06267000      -0.00182700       0.00659200       0.01308700
C        3.71912000       3.22088000      10.06387000       0.15551700       0.01365600       0.00701900
C       -2.32448000       4.56294000      10.06412000       0.01014700       0.00687800       0.00611700
C        0.46490000       1.34206000      10.05913000      -0.07986900      -0.17547100       0.01034200
C       -0.00003000       3.75770000      10.05623000      -0.11731400       0.14770700       0.03896400
C        2.78935000       0.53682000      10.06217000       0.09030500      -0.13252800       0.02727300
C        2.32448000       2.95247000      10.05717000       0.19534900       0.04362500       0.02086400
C        1.85954000       5.36812000      10.06492000       0.07555800       0.14472700      -0.00202100
C        4.64892000       2.14723000      10.06213000      -0.15818900      -0.02649100       0.02601900
Li       0.92951000       2.68392000      12.00000000      -0.00021400       0.00049100      -0.00000000
29
Lattice="6.508500099 0.0 0.0 -3.25425005 5.636526426 0.0 0.0 0.0 24.0" Properties=species:S:1:pos:R:3:forces:R:3 stress="-0.007960601742916157 1.1240957935715749e-05 -0.0 1.1240957935715749e-05 -0.007969608240584807 -0.0 -0.0 -0.0 0.005197935041544704" free_energy=-262.15189746 energy=-262.1514184 pbc="T T T"
C        0.00000000       0.00000000      13.93892000      -0.06966000      -0.15348200      -0.02027600
C       -0.46487000       2.41565000      13.94317000      -0.18046700      -0.02752900      -0.00795000
C       -0.92980000       4.83129000      13.93778000      -0.10403800       0.12410400      -0.00067400
C        1.85958000       1.61041000      13.94333000       0.12672500      -0.15227300      -0.01286500
C        1.39467000       4.02611000      13.94280000       0.05681800       0.18205800      -0.01032700
C        4.18405000       0.80523000      13.93957000      -0.00209400       0.00668200      -0.01287200
C        3.71912000       3.22088000      13.93813000       0.15632000       0.01415800      -0.00923800
C       -2.32448000       4.56294000      13.93829000       0.01234100       0.00927800      -0.01339700
C        0.46490000       1.34206000      13.94240000      -0.08005500      -0.17482500      -0.00671800
C       -0.00003000       3.75770000      13.94509000      -0.11732200       0.14758500      -0.03290600
C        2.78935000       0.53682000      13.93979000       0.08907400      -0.13487500      -0.02410400
C        2.32448000       2.95247000      13.94411000       0.19470400       0.04381600      -0.01631100
C        1.85954000       5.36812000      13.93716000       0.07355500       0.14075700      -0.00298300
C        4.64892000       2.14723000      13.93981000      -0.15560900      -0.02578100      -0.02272800
C        0.00000000       0.00000000      10.06108000      -0.06966000      -0.15348200       0.02027600
C       -0.46487000       2.41565000      10.05683000      -0.18046700      -0.02752900       0.00795000
C       -0.92980000       4.83129000      10.06222000      -0.10403800       0.12410400       0.00067400
C        1.85958000       1.61041000      10.05667000       0.12672500      -0.15227300       0.01286500
C        1.39467000       4.02611000      10.05720000       0.05681800       0.18205800       0.01032700
C        4.18405000       0.80523000      10.06043000      -0.00209400       0.00668200       0.01287200
C        3.71912000       3.22088000      10.06187000       0.15632000       0.01415800       0.00923800
C       -2.32448000       4.56294000      10.06171000       0.01234100       0.00927800       0.01339700
C        0.46490000       1.34206000      10.05760000      -0.08005500      -0.17482500       0.00671800
C       -0.00003000       3.75770000      10.05491000      -0.11732200       0.14758500       0.03290600
C        2.78935000       0.53682000      10.06021000       0.08907400      -0.13487500       0.02410400
C        2.32448000       2.95247000      10.05589000       0.19470400       0.04381600       0.01631100
C        1.85954000       5.36812000      10.06284000       0.07355500       0.14075700       0.00298300
C        4.64892000       2.14723000      10.06019000      -0.15560900      -0.02578100       0.02272800
Li       0.92956000       2.68395000      12.00000000      -0.00059000       0.00065300       0.00000000
29
Lattice="6.508500099 0.0 0.0 -3.25425005 5.636526426 0.0 0.0 0.0 24.0" Properties=species:S:1:pos:R:3:forces:R:3 stress="-0.007968659531197674 1.9236331125972202e-05 -0.0 1.9236331125972202e-05 -0.007975469017654013 -0.0 -0.0 -0.0 0.005185077532745385" free_energy=-262.15081656 energy=-262.15033756 pbc="T T T"
C        0.00000000       0.00000000      13.94261000      -0.06909700      -0.15324800      -0.02779900
C       -0.46487000       2.41565000      13.94584000      -0.18116300      -0.03007600      -0.01007300
C       -0.92980000       4.83129000      13.94172000      -0.10247300       0.12321300      -0.01819200
C        1.85958000       1.61041000      13.94556000       0.12230800      -0.15156100      -0.00816200
C        1.39467000       4.02611000      13.94539000       0.05983600       0.18119900      -0.01363200
C        4.18405000       0.80523000      13.94333000      -0.00286600       0.00752400      -0.02082000
C        3.71912000       3.22088000      13.94138000       0.15638100       0.01265800      -0.01594600
C       -2.32448000       4.56294000      13.94164000       0.01117700       0.01082900      -0.00323000
C        0.46490000       1.34206000      13.94539000      -0.07900800      -0.17453400      -0.01037800
C       -0.00003000       3.75770000      13.94665000      -0.11655700       0.14718400      -0.01170300
C        2.78935000       0.53682000      13.94273000       0.08790400      -0.13291400      -0.01348600
C        2.32448000       2.95247000      13.94625000       0.19465900       0.04654700      -0.01408800
C        1.85954000       5.36812000      13.94061000       0.07506600       0.14114700      -0.00042500
C        4.64892000       2.14723000      13.94281000      -0.15600400      -0.02805400      -0.01414200
C        0.00000000       0.00000000      10.05739000      -0.06909700      -0.15324800       0.02779900
C       -0.46487000       2.41565000      10.05416000      -0.18116300      -0.03007600       0.01007300
C       -0.92980000       4.83129000      10.05828000      -0.10247300       0.12321300       0.01819200
C        1.85958000       1.61041000      10.05444000       0.12230800      -0.15156100       0.00816200
C        1.39467000       4.02611000      10.05461000       0.05983600       0.18119900       0.01363200
C        4.18405000       0.80523000      10.05667000      -0.00286600       0.00752400       0.02082000
C        3.71912000       3.22088000      10.05862000       0.15638100       0.01265800       0.01594600
C       -2.32448000       4.56294000      10.05836000       0.01117700       0.01082900       0.00323000
C        0.46490000       1.34206000      10.05461000      -0.07900800      -0.17453400       0.01037800
C       -0.00003000       3.75770000      10.05335000      -0.11655700       0.14718400       0.01170300
C        2.78935000       0.53682000      10.05727000       0.08790400      -0.13291400       0.01348600
C        2.32448000       2.95247000      10.05375000       0.19465900       0.04654700       0.01408800