29
Lattice="6.508500099 0.0 0.0 -3.25425005 5.636526426 0.0 0.0 0.0 24.0" Properties=species:S:1:pos:R:3:forces:R:3 stress="-0.008085144816014033 1.7981787791669667e-05 -2.683848924129801e-07 1.7981787791669667e-05 -0.00807494619010234 4.181811114341783e-07 -2.683848924129801e-07 4.181811114341783e-07 0.003272466925264474" free_energy=-261.96281452 energy=-261.96040833 pbc="T T T"
C        0.00000000       0.00000000      13.95000000      -0.06617000      -0.26901300      -0.02307600
C       -0.46487000       2.41565000      13.95000000      -0.19267600       0.19011300      -0.03293500
C       -0.92980000       4.83129000      13.95000000       0.04006200      -0.10268400      -0.00178800
C        1.85958000       1.61041000      13.95000000       0.26798400       0.07235600      -0.03416300
C        1.39467000       4.02611000      13.95000000       0.04807200       0.09103100      -0.00178300
C        4.18405000       0.80523000      13.95000000      -0.10362300       0.01227400      -0.00306100
C        3.71912000       3.22088000      13.95000000      -0.00832900      -0.00344100      -0.02322700
C       -2.32448000       4.56294000      13.95000000       0.05582300      -0.08578200      -0.02578100
C        0.46490000       1.34206000      13.95000000      -0.01572500      -0.00064200       1.02121000
C       -0.00003000       3.75770000      13.95000000      -0.01382200       0.17747200      -0.03246100
C        2.78935000       0.53682000      13.95000000       0.13951000      -0.07421000      -0.02931500
C        2.32448000       2.95247000      13.95000000       0.07585500       0.11435700      -0.01951100
C        1.85954000       5.36812000      13.95000000      -0.13225200      -0.11554800      -0.03551600
C        4.64892000       2.14723000      13.95000000      -0.09473300      -0.00756400      -0.01956100
C        0.00000000       0.00000000      10.05000000      -0.06517400      -0.17881900       0.00808400
C       -0.46487000       2.41565000      10.05000000      -0.11300800       0.15167600       0.01921000
C       -0.92980000       4.83129000      10.05000000       0.10363800      -0.14033400       0.03896400
C        1.85958000       1.61041000      10.05000000       0.19834200       0.02533200       0.01793200
C        1.39467000       4.02611000      10.05000000       0.06137100       0.16278300       0.03896400
C        4.18405000       0.80523000      10.05000000      -0.16245000      -0.01151800       0.03769100
C        3.71912000       3.22088000      10.05000000      -0.00775600      -0.00118600      -0.00219300
C       -1.39467000       3.48929000      10.05000000      -0.11587600       0.15114700       0.03814700
C        1.39471000       0.26841000      10.05000000       0.10984100      -0.13490400       0.02748900
C        0.92977000       2.68406000      10.05000000       0.05457800       0.15531700       0.02131600
C        0.46490000       5.09970000      10.05000000       0.02222100       0.00021600      -0.00095500
C        3.25428000       1.87882000      10.05000000       0.16252000       0.01941700       0.04132800
C        2.78935000       4.29447000      10.05000000      -0.04974400      -0.15304400       0.04439100
C        5.57873000       1.07359000      10.05000000      -0.19809000      -0.04766200       0.02744100
Li       0.46490000       1.34206000      12.00000000      -0.00038800       0.00286300      -1.09684200
29
Lattice="6.508500099 0.0 0.0 -3.25425005 5.636526426 0.0 0.0 0.0 24.0" Properties=species:S:1:pos:R:3:forces:R:3 stress="-0.00809682267958856 2.4323161063567056e-05 4.805962026930109e-07 2.4323161063567056e-05 -0.008080657170952523 2.652641378500385e-06 4.805962026930109e-07 2.652641378500385e-06 0.004161326481390634" free_energy=-262.02738178 energy=-262.02504429 pbc="T T T"
C        0.00000000       0.00000000      13.94889000      -0.05728800      -0.23756500       0.23584200
C       -0.46487000       2.41565000      13.94841000      -0.17037600       0.16603900       0.23397700
C       -0.92980000       4.83129000      13.94991000       0.03723800      -0.08921300      -0.02792900
C        1.85958000       1.61041000      13.94835000       0.23555100       0.06467400       0.23457300
C        1.39467000       4.02611000      13.94991000       0.03718800       0.08221700      -0.02796100
C        4.18405000       0.80523000      13.94985000      -0.09126900       0.00767600      -0.02713200
C        3.71912000       3.22088000      13.94888000      -0.00886800      -0.00349000      -0.09663800
C       -2.32448000       4.56294000      13.94876000       0.06321200      -0.08916800      -0.03520400
C        0.46490000       1.34206000      13.99927000      -0.00384300       0.00940900      -0.07756000
C       -0.00003000       3.75770000      13.94843000      -0.00183300       0.17509900      -0.02543800
C        2.78935000       0.53682000      13.94859000       0.13325900      -0.08722400      -0.02172500
C        2.32448000       2.95247000      13.94906000       0.07103400       0.11988400      -0.02932000
C        1.85954000       5.36812000      13.94829000      -0.13885300      -0.10526400      -0.03160400
C        4.64892000       2.14723000      13.94906000      -0.09835100      -0.00736900      -0.02934800
C        0.00000000       0.00000000      10.05039000      -0.07163600      -0.19460300       0.00740200
C       -0.46487000       2.41565000      10.05093000      -0.12406800       0.16492800       0.00871400
C       -0.92980000       4.83129000      10.05188000       0.10801000      -0.14605400       0.03128800
C        1.85958000       1.61041000      10.05087000       0.21467400       0.02807800       0.00949200
C        1.39467000       4.02611000      10.05188000       0.06336000       0.16963500       0.03129400
C        4.18405000       0.80523000      10.05182000      -0.17031700      -0.01293900       0.03200600
C        3.71912000       3.22088000      10.04989000      -0.00815000      -0.00120200       0.02979300
C       -1.39467000       3.48929000      10.05184000      -0.12251300       0.15273500       0.01418900
C        1.39471000       0.26841000      10.05133000       0.12228700      -0.14595300       0.00314600
C        0.92977000       2.68406000      10.05103000       0.06365200       0.17147800      -0.00320000
C        0.46490000       5.09970000      10.04995000       0.02178200       0.00023800       0.02744000
C        3.25428000       1.87882000      10.05199000       0.16886500       0.02055200       0.01784800
C        2.78935000       4.29447000      10.05214000      -0.05217700      -0.16207100       0.02402700
C        5.57873000       1.07359000      10.05132000      -0.21748200      -0.04968700       0.00318400
Li       0.46488000       1.34220000      11.94709000      -0.00308700      -0.00084100      -0.51115600
29
Lattice="6.508500099 0.0 0.0 -3.25425005 5.636526426 0.0 0.0 0.0 24.0" Properties=species:S:1:pos:R:3:forces:R:3 stress="-0.008141930066041319 2.8355175958887643e-05 -4.200535641719432e-06 2.8355175958887643e-05 -0.008147884465747412 4.637441280531261e-06 -4.200535641719432e-06 4.637441280531261e-06 0.0042074949243947925" free_energy=-262.04395964 energy=-262.04167941 pbc="T T T"
C        0.00000000       0.00000000      13.96038000      -0.06417200      -0.24775100       0.03844100
C       -0.46487000       2.41565000      13.95982000      -0.18068300       0.18714800       0.04310900
C       -0.92980000       4.83129000      13.94855000       0.03112100      -0.08595300      -0.04372800
C        1.85958000       1.61041000      13.95979000       0.25717200       0.07125800       0.04592600
C        1.39467000       4.02611000      13.94855000       0.03586300       0.07398600      -0.04495600
C        4.18405000       0.80523000      13.94853000      -0.08539900       0.00936400      -0.04305800
C        3.71912000       3.22088000      13.94417000      -0.00729300      -0.00376700      -0.07001300
C       -2.32448000       4.56294000      13.94704000       0.06147400      -0.08604200       0.02547800
C        0.46490000       1.34206000      13.99549000      -0.00112100       0.01342000       0.08900400
C       -0.00003000       3.75770000      13.94719000      -0.00248900       0.16210400       0.04589900
C        2.78935000       0.53682000      13.94753000       0.12582300      -0.08019000       0.03242600
C        2.32448000       2.95247000      13.94763000       0.06705500       0.11396200       0.02786700
C        1.85954000       5.36812000      13.94675000      -0.13122700      -0.09737500       0.03440200
C        4.64892000       2.14723000      13.94763000      -0.09301000      -0.00838300       0.02789700
C        0.00000000       0.00000000      10.05075000      -0.07532600      -0.20481800      -0.00116700
C       -0.46487000       2.41565000      10.05135000      -0.13078300       0.17134000      -0.00563700
C       -0.92980000       4.83129000      10.05340000       0.10943500      -0.14847000       0.02040900
C        1.85958000       1.61041000      10.05133000       0.22366600       0.02888400      -0.00348700
C        1.39467000       4.02611000      10.05341000       0.06565900       0.17116000       0.02144700
C        4.18405000       0.80523000      10.05338000      -0.17420600      -0.01599000       0.02220500
C        3.71912000       3.22088000      10.05135000      -0.00855900      -0.00223900       0.02405300
C       -1.39467000       3.48929000      10.05253000      -0.12190600       0.15276600       0.02358700
C        1.39471000       0.26841000      10.05148000       0.12763200      -0.15440300       0.00251300
C        0.92977000       2.68406000      10.05087000       0.06658900       0.17919900       0.00001700
C        0.46490000       5.09970000      10.05129000       0.01902400       0.00247000       0.02506600
C        3.25428000       1.87882000      10.05286000       0.17192100       0.02001200       0.01017700
C        2.78935000       4.29447000      10.05331000      -0.05779200      -0.16705700       0.02159800
C        5.57873000       1.07359000      10.05148000      -0.22737900      -0.05218500       0.00241700
Li       0.46473000       1.34215000      11.92217000      -0.00109200      -0.00244800      -0.37189000
29
Lattice="6.508500099 0.0 0.0 -3.25425005 5.636526426 0.0 0.0 0.0 24.0" Properties=species:S:1:pos:R:3:forces:R:3 stress="-0.00819277964088989 2.852369670528649e-05 -4.1193960230829507e-07 2.852369670528649e-05 -0.008185870290287537 7.052905312248081e-06 -4.1193960230829507e-07 7.052905312248081e-06 0.004306510225167805" free_energy=-262.05422373 energy=-262.05206742 pbc="T T T"
C        0.00000000       0.00000000      13.96619000      -0.06565700      -0.24577100      -0.01057000
C       -0.46487000       2.41565000      13.96596000      -0.17934300       0.18755100       0.01840600
C       -0.92980000       4.83129000      13.94483000       0.02755300      -0.07733000       0.04691000
C        1.85958000       1.61041000      13.96616000       0.25583600       0.06995500       0.01302500
C        1.39467000       4.02611000      13.94473000       0.03511100       0.06610000       0.04842800
C        4.18405000       0.80523000      13.94486000      -0.07785500       0.00868600       0.04268900
C        3.71912000       3.22088000      13.93758000      -0.00927300      -0.00529900       0.03595800
C       -2.32448000       4.56294000      13.94860000       0.05912000      -0.08148000      -0.02428800
C        0.46490000       1.34206000      14.00146000      -0.00394100       0.00877000      -0.00013200
C       -0.00003000       3.75770000      13.95045000       0.00013100       0.15382700      -0.04236800
C        2.78935000       0.53682000      13.94978000       0.11203200      -0.07595800      -0.02508500
C        2.32448000       2.95247000      13.94944000       0.06832400       0.11000100      -0.02407700
C        1.85954000       5.36812000      13.94904000      -0.12150000      -0.09331900      -0.02364200
C        4.64892000       2.14723000      13.94944000      -0.09237100      -0.00915200      -0.02442300
C        0.00000000       0.00000000      10.05075000      -0.07960200      -0.21718300      -0.00429200
C       -0.46487000       2.41565000      10.05102000      -0.13902700       0.18249200      -0.00740700
C       -0.92980000       4.83129000      10.05536000       0.11328300      -0.15064700       0.02272000
C        1.85958000       1.61041000      10.05117000       0.23758700       0.03181200      -0.01323100
C        1.39467000       4.02611000      10.05544000       0.06794200       0.17503200       0.02099700
C        4.18405000       0.80523000      10.05548000      -0.17872500      -0.01686000       0.01704000
C        3.71912000       3.22088000      10.05357000      -0.00686900      -0.00066600       0.01925500
C       -1.39467000       3.48929000      10.05453000      -0.12123500       0.15493700       0.01860600
C        1.39471000       0.26841000      10.05171000       0.13666100      -0.16415800      -0.00767000
C        0.92977000       2.68406000      10.05084000       0.07181100       0.19218700      -0.00856900
C        0.46490000       5.09970000      10.05356000       0.01327500      -0.00020800       0.01973700
C        3.25428000       1.87882000      10.05387000       0.17645800       0.02127700       0.02367100
C        2.78935000       4.29447000      10.05528000      -0.05679600      -0.16921600       0.02389100
C        5.57873000       1.07359000      10.05170000      -0.24018100      -0.05372000      -0.00772000
Li       0.46461000       1.34195000      11.88720000      -0.00274900      -0.00166200      -0.14786000
29
Lattice="6.508500099 0.0 0.0 -3.25425005 5.636526426 0.0 0.0 0.0 24.0" Properties=species:S:1:pos:R:3:forces:R:3 stress="-0.008214681096412614 2.9603477784064297e-05 -5.242867665741937e-06 2.9603477784064297e-05 -0.008208271066540332 8.132686391025887e-06 -5.242867665741937e-06 8.132686391025887e-06 0.004330415205119937" free_energy=-262.05600985 energy=-262.05389591 pbc="T T T"
C        0.00000000       0.00000000      13.96722000      -0.06605900      -0.24503900      -0.02828700
C       -0.46487000       2.41565000      13.96820000      -0.17877300       0.18786800      -0.01639600
C       -0.92980000       4.83129000      13.94599000       0.02591100      -0.07580300       0.01472900
C        1.85958000       1.61041000      13.96822000       0.25585400       0.06912500      -0.01669400
C        1.39467000       4.02611000      13.94594000       0.03424700       0.06390400       0.01651800
C        4.18405000       0.80523000      13.94588000      -0.07561200       0.00874400       0.01614300
C        3.71912000       3.22088000      13.93769000      -0.00918900      -0.00549900       0.01579200
C       -2.32448000       4.56294000      13.94783000       0.05838600      -0.07997900      -0.00272200
C        0.46490000       1.34206000      14.00233000      -0.00101400       0.01478000      -0.02166000
C       -0.00003000       3.75770000      13.94928000       0.00035800       0.14929700      -0.00199500
C        2.78935000       0.53682000      13.94913000       0.10999200      -0.07709200       0.01184800
C        2.32448000       2.95247000      13.94874000       0.06455000       0.10961700       0.00528300
C        1.85954000       5.36812000      13.94843000      -0.11882500      -0.09145000       0.00080200
C        4.64892000       2.14723000      13.94872000      -0.08720600      -0.00861000       0.00497300
C        0.00000000       0.00000000      10.05059000      -0.08161100      -0.22274500      -0.00791100
C       -0.46487000       2.41565000      10.05068000      -0.14266700       0.18648600      -0.01102500
C       -0.92980000       4.83129000      10.05666000       0.11612800      -0.15680900       0.01720900
C        1.85958000       1.61041000      10.05064000       0.24289600       0.03248400      -0.01399300
C        1.39467000       4.02611000      10.05669000       0.06448900       0.17727500       0.01687200
C        4.18405000       0.80523000      10.05658000      -0.18216100      -0.01470100       0.01460700
C        3.71912000       3.22088000      10.05477000      -0.00615000      -0.00094900       0.02056800
C       -1.39467000       3.48929000      10.05564000      -0.12077200       0.15464500       0.01432700
C        1.39471000       0.26841000      10.05145000       0.14017900      -0.16860800      -0.01112000
C        0.92977000       2.68406000      10.05048000       0.07139100       0.19884400      -0.00985000
C        0.46490000       5.09970000      10.05479000       0.01220400       0.00072300       0.02161700
C        3.25428000       1.87882000      10.05501000       0.17840500       0.02110600       0.01936800
C        2.78935000       4.29447000      10.05661000      -0.05914900      -0.17293900       0.01677200
C        5.57873000       1.07359000      10.05144000      -0.24566000      -0.05493600      -0.01132300
Li       0.46448000       1.34185000      11.87436000      -0.00014200       0.00026200      -0.07445200
29
Lattice="6.508500099 0.0 0.0 -3.25425005 5.636526426 0.0 0.0 0.0 24.0" Properties=species:S:1:pos:R:3:forces:R:3 stress="-0.008226808348644206 3.301134176679655e-05 -2.340565922206222e-06 3.301134176679655e-05 -0.008215498734108104 9.799169327636714e-06 -2.340565922206222e-06 9.799169327636714e-06 0.004328630133509935" free_energy=-262.05680881 energy=-262.05472447 pbc="T T T"
C        0.00000000       0.00000000      13.96601000      -0.06584700      -0.24431200      -0.02362300
C       -0.46487000       2.41565000      13.96781000      -0.17833200       0.18877400      -0.01944500
C       -0.92980000       4.83129000      13.94675000       0.02512600      -0.07500300       0.00686800
C        1.85958000       1.61041000      13.96783000       0.25656000       0.06923900      -0.01297200
C        1.39467000       4.02611000      13.94681000       0.03372700       0.06394000       0.00615900
C        4.18405000       0.80523000      13.94673000      -0.07362300       0.00950500       0.01207000
C        3.71912000       3.22088000      13.93825000      -0.00874800      -0.00526600       0.01493600
C       -2.32448000       4.56294000      13.94767000       0.05663100      -0.08012000       0.00073900
C        0.46490000       1.34206000      14.00100000      -0.00378900       0.00809100      -0.03362200
C       -0.00003000       3.75770000      13.94928000       0.00101800       0.14828100       0.00725100
C        2.78935000       0.53682000      13.95003000       0.10718500      -0.07337800      -0.00104800
C        2.32448000       2.95247000      13.94915000       0.06476400       0.10969900       0.00570200
C        1.85954000       5.36812000      13.94855000      -0.11793800      -0.09045300       0.00305200
C        4.64892000       2.14723000      13.94912000      -0.08660400      -0.00842400       0.00547200
C        0.00000000       0.00000000      10.05006000      -0.08236300      -0.22543000      -0.01042300
C       -0.46487000       2.41565000      10.04993000      -0.14430900       0.18914100      -0.01157400
C       -0.92980000       4.83129000      10.05799000       0.11692000      -0.15688800       0.01364700
C        1.85958000       1.61041000      10.04969000       0.24635300       0.03316400      -0.01022100
C        1.39467000       4.02611000      10.05800000       0.06519300       0.17807200       0.01496900
C        4.18405000       0.80523000      10.05775000      -0.18234900      -0.01464100       0.01455100
C        3.71912000       3.22088000      10.05635000      -0.00563200      -0.00061200       0.02111500
C       -1.39467000       3.48929000      10.05675000      -0.12022800       0.15571300       0.01236800
C        1.39471000       0.26841000      10.05071000       0.14257600      -0.17074500      -0.01064900
C        0.92977000       2.68406000      10.04980000       0.07122600       0.19961700      -0.00254500
C        0.46490000       5.09970000      10.05644000       0.01129300      -0.00138400       0.01799000
C        3.25428000       1.87882000      10.05642000       0.17927400       0.02148700       0.01337500
C        2.78935000       4.29447000      10.05790000      -0.05899400      -0.17318400       0.01581600
C        5.57873000       1.07359000      10.05068000      -0.24829100      -0.05515000      -0.01064500
Li       0.46445000       1.34186000      11.86654000      -0.00079800       0.00026800      -0.03931200
29
Lattice="6.508500099 0.0 0.0 -3.25425005 5.636526426 0.0 0.0 0.0 24.0" Properties=species:S:1:pos:R:3:forces:R:3 stress="-0.008237599917922857 2.5128315740805995e-05 -9.062671250782491e-06 2.5128315740805995e-05 -0.008230222454136064 6.528618545673888e-06 -9.062671250782491e-06 6.528618545673888e-06 0.004357378524543753" free_energy=-262.05748046 energy=-262.05541543 pbc="T T T"
C        0.00000000       0.00000000      13.96338000      -0.06621600      -0.24446500       0.02104400
C       -0.46487000       2.41565000      13.96579000      -0.17852700       0.19013200      -0.00851200
C       -0.92980000       4.83129000      13.94756000       0.02459500      -0.07451100       0.00260300
C        1.85958000       1.61041000      13.96654000       0.25752000       0.06916200      -0.01710600
C        1.39467000       4.02611000      13.94757000       0.03311200       0.06326400       0.00832500
C        4.18405000       0.80523000      13.94816000      -0.07310500       0.01104000      -0.00142200
C        3.71912000       3.22088000      13.93985000      -0.00878900      -0.00541100       0.01146800
C       -2.32448000       4.56294000      13.94772000       0.05688200      -0.08040800      -0.00265600
C        0.46490000       1.34206000      13.99694000      -0.00098800       0.01286100      -0.02752400
C       -0.00003000       3.75770000      13.95014000       0.00082500       0.14830100      -0.00152900
C        2.78935000       0.53682000      13.95014000       0.10656500      -0.07295100       0.00664200
C        2.32448000       2.95247000      13.94989000       0.06847200       0.11016100      -0.00764600
C        1.85954000       5.36812000      13.94894000      -0.11814000      -0.09038200      -0.00184100
C        4.64892000       2.14723000      13.94983000      -0.08890000      -0.01212700      -0.00786800
C        0.00000000       0.00000000      10.04880000      -0.08360000      -0.22826000      -0.00770100
C       -0.46487000       2.41565000      10.04849000      -0.14648000       0.19134400      -0.00465700
C       -0.92980000       4.83129000      10.05982000       0.11565300      -0.15588400       0.00197300
C        1.85958000       1.61041000      10.04837000       0.24907400       0.03336300      -0.00301800
C        1.39467000       4.02611000      10.05997000       0.06672100       0.17925000       0.00969300
C        4.18405000       0.80523000      10.05965000      -0.18132300      -0.01575800       0.00170100
C        3.71912000       3.22088000      10.05906000      -0.00734600      -0.00298200       0.01587300
C       -1.39467000       3.48929000      10.05837000      -0.12059300       0.15563000       0.01149300
C        1.39471000       0.26841000      10.04938000       0.14203500      -0.17450500      -0.00385300
C        0.92977000       2.68406000      10.04938000       0.07211400       0.20235400      -0.01042200
C        0.46490000       5.09970000      10.05882000       0.01120400      -0.00144700       0.01859500
C        3.25428000       1.87882000      10.05821000       0.17921000       0.02153100       0.00561800
C        2.78935000       4.29447000      10.05995000      -0.05935900      -0.17310200       0.01222400
C        5.57873000       1.07359000      10.04935000      -0.24862800      -0.05662900      -0.00403800
Li       0.46436000       1.34189000      11.85994000      -0.00198600       0.00043000      -0.01746100
29
Lattice="6.508500099 0.0 0.0 -3.25425005 5.636526426 0.0 0.0 0.0 24.0" Properties=species:S:1:pos:R:3:forces:R:3 stress="-0.008254751585000783 2.3355727149055154e-05 -1.0872708897288637e-05 2.3355727149055154e-05 -0.00825542566798638 3.0333734351792634e-06 -1.0872708897288637e-05 3.0333734351792634e-06 0.004349951128683952" free_energy=-262.05773995 energy=-262.05569181 pbc="T T T"
C        0.00000000       0.00000000      13.96337000      -0.06697900      -0.24615600       0.00581400
C       -0.46487000       2.41565000      13.96466000      -0.17842200       0.19113700      -0.00568800
C       -0.92980000       4.83129000      13.94790000       0.02456300      -0.07561400      -0.00100600
C        1.85958000       1.61041000      13.96530000       0.25887500       0.06929300      -0.01414200
C        1.39467000       4.02611000      13.94814000       0.03140000       0.06311800       0.00071300
C        4.18405000       0.80523000      13.94854000      -0.07270200       0.01102100      -0.00265900
C        3.71912000       3.22088000      13.94087000      -0.00923300      -0.00708900      -0.00291900
C       -2.32448000       4.56294000      13.94768000       0.05659600      -0.08007100       0.00615900
C        0.46490000       1.34206000      13.99433000      -0.00019200       0.01229700      -0.01535000
C       -0.00003000       3.75770000      13.95049000       0.00083900       0.14799400      -0.00603100
C        2.78935000       0.53682000      13.95053000       0.10638800      -0.07298500       0.00141300
C        2.32448000       2.95247000      13.94988000       0.06843800       0.11021100      -0.00485800
C        1.85954000       5.36812000      13.94907000      -0.11739700      -0.09028400       0.00481500
C        4.64892000       2.14723000      13.94979000      -0.08899900      -0.01236700      -0.00568300
C        0.00000000       0.00000000      10.04798000      -0.08413400      -0.22981800       0.00658600
C       -0.46487000       2.41565000      10.04774000      -0.14674100       0.19668000       0.00028300
C       -0.92980000       4.83129000      10.06059000       0.11565600      -0.15603700       0.00659900
C        1.85958000       1.61041000      10.04775000       0.25269900       0.03435000      -0.00133600
C        1.39467000       4.02611000      10.06115000       0.06655800       0.17906000       0.01124400
C        4.18405000       0.80523000      10.06044000      -0.18148500      -0.01588400       0.00458500
C        3.71912000       3.22088000      10.06080000      -0.00720100      -0.00145800       0.00702100
C       -1.39467000       3.48929000      10.05951000      -0.12067200       0.15547900       0.00887500
C        1.39471000       0.26841000      10.04872000       0.14277200      -0.17565000      -0.00494800
C        0.92977000       2.68406000      10.04876000       0.07257300       0.20362300      -0.00860900
C        0.46490000       5.09970000      10.06055000       0.00977600       0.00047300       0.00973400
C        3.25428000       1.87882000      10.05912000       0.17912500       0.02143300       0.00686400
C        2.78935000       4.29447000      10.06126000      -0.05986300      -0.17538900       0.00772500
C        5.57873000       1.07359000      10.04868000      -0.25006200      -0.05696700      -0.00517000
Li       0.46424000       1.34192000      11.85642000      -0.00217900      -0.00039900      -0.01003200
29
Lattice="6.508500099 0.0 0.0 -3.25425005 5.636526426 0.0 0.0 0.0 24.0" Properties=species:S:1:pos:R:3:forces:R:3 stress="-0.008254133675597323 2.7019493005948626e-05 -1.3569040839670204e-05 2.7019493005948626e-05 -0.008255675328351414 1.7850716100026118e-06 -1.3569040839670204e-05 1.7850716100026118e-06 0.0043429668799720884" free_energy=-262.05787034 energy=-262.05583409 pbc="T T T"
C        0.00000000       0.00000000      13.96297000      -0.06741200      -0.24682600       0.00346900
C       -0.46487000       2.41565000      13.96377000      -0.17882500       0.19157000      -0.00831100
C       -0.92980000       4.83129000      13.94807000       0.02420700      -0.07531300      -0.00007000
C        1.85958000       1.61041000      13.96416000       0.25994500       0.06928500      -0.00889600
C        1.39467000       4.02611000      13.94839000       0.03119200       0.06283200       0.00000900
C        4.18405000       0.80523000      13.94880000      -0.07242100       0.01103400      -0.00334100
C        3.71912000       3.22088000      13.94116000      -0.00937400      -0.00698100      -0.00190000
C       -2.32448000       4.56294000      13.94805000       0.05882000      -0.07955600       0.00015400
C        0.46490000       1.34206000      13.99232000       0.00076200       0.01294700      -0.00681800
C       -0.00003000       3.75770000      13.95044000       0.00075300       0.14769500      -0.00740400
C        2.78935000       0.53682000      13.95064000       0.10619000      -0.07295600      -0.00278900
C        2.32448000       2.95247000      13.94983000       0.06838000       0.11027400      -0.00784700
C        1.85954000       5.36812000      13.94946000      -0.11576100      -0.08768000       0.00070100
C        4.64892000       2.14723000      13.94969000      -0.09017700      -0.00985600       0.00170600
C        0.00000000       0.00000000      10.04795000      -0.08459500      -0.23103400       0.00078300
C       -0.46487000       2.41565000      10.04732000      -0.14767300       0.19755300      -0.00127600
C       -0.92980000       4.83129000      10.06150000       0.11550200      -0.15590100       0.00495800
C        1.85958000       1.61041000      10.04728000       0.25373400       0.03449100      -0.00258000
C        1.39467000       4.02611000      10.06237000       0.06646100       0.17881100       0.00693100
C        4.18405000       0.80523000      10.06127000      -0.18148400      -0.01587600       0.00323500