29
Lattice="6.508500099 0.0 0.0 -3.25425005 5.636526426 0.0 0.0 0.0 24.0" Properties=species:S:1:pos:R:3:forces:R:3 stress="-0.00771134707597401 1.7538640643731956e-05 -8.488452411201233e-07 1.7538640643731956e-05 -0.007698433393592559 9.42467878008372e-07 -8.488452411201233e-07 9.42467878008372e-07 -0.005347625154910762" free_energy=-261.34695741 energy=-261.34496483 pbc="T T T"
C        0.00000000       0.00000000      13.70000000      -0.07456700      -0.30332600       0.14922400
C       -0.46487000       2.41565000      13.70000000      -0.20786700       0.21699700       0.14837700
C       -0.92980000       4.83129000      13.70000000       0.04229400      -0.12724900       0.03174400
C        1.85958000       1.61041000      13.70000000       0.31099500       0.06985600       0.14830400
C        1.39467000       4.02611000      13.70000000       0.05032500       0.11034400       0.03175100
C        4.18405000       0.80523000      13.70000000      -0.11243400       0.02891500       0.03174200
C        3.71912000       3.22088000      13.70000000      -0.02367800      -0.00539500       0.01685700
C       -2.32448000       4.56294000      13.70000000       0.05995600      -0.08729200       0.03437200
C        0.46490000       1.34206000      13.70000000      -0.00914200       0.00032100       3.41843400
C       -0.00003000       3.75770000      13.70000000      -0.00654800       0.18537700       0.02567000
C        2.78935000       0.53682000      13.70000000       0.17107800      -0.08187400       0.02477200
C        2.32448000       2.95247000      13.70000000       0.05710400       0.09165400       0.03436800
C        1.85954000       5.36812000      13.70000000      -0.14684700      -0.10858400       0.02478000
C        4.64892000       2.14723000      13.70000000      -0.11025900       0.00745100       0.03441900
C        0.00000000       0.00000000      10.30000000      -0.09594200      -0.26590600      -0.18137800
C       -0.46487000       2.41565000      10.30000000      -0.15770300       0.22340900      -0.18048200
C       -0.92980000       4.83129000      10.30000000       0.10652100      -0.17270500       0.01029500
C        1.85958000       1.61041000      10.30000000       0.29660500       0.03438700      -0.18045200
C        1.39467000       4.02611000      10.30000000       0.06325700       0.19166100       0.01028900
C        4.18405000       0.80523000      10.30000000      -0.17939900      -0.00004500       0.01029400
C        3.71912000       3.22088000      10.30000000      -0.01816400      -0.00387700      -0.03521800
C       -1.39467000       3.48929000      10.30000000      -0.10264600       0.14343600       0.00084900
C        1.39471000       0.26841000      10.30000000       0.17369900      -0.20684000      -0.17619500
C        0.92977000       2.68406000      10.30000000       0.09431900       0.26643400      -0.17630900
C        0.46490000       5.09970000      10.30000000      -0.00579800      -0.00268000      -0.04327000
C        3.25428000       1.87882000      10.30000000       0.17743800       0.01440900      -0.00006600
C        2.78935000       4.29447000      10.30000000      -0.06772300      -0.16464800       0.00081900
C        5.57873000       1.07359000      10.30000000      -0.28384100      -0.06011100      -0.17632900
Li       0.46490000       1.34206000      12.00000000      -0.00103300       0.00588000      -3.03766400
29
Lattice="6.508500099 0.0 0.0 -3.25425005 5.636526426 0.0 0.0 0.0 24.0" Properties=species:S:1:pos:R:3:forces:R:3 stress="-0.007890316108649586 3.5514186926275735e-06 1.5441493577435183e-05 3.5514186926275735e-06 -0.007866504751334342 -8.269999591795316e-06 1.5441493577435183e-05 -8.269999591795316e-06 -0.0008830299866025858" free_energy=-261.65309366 energy=-261.65114587 pbc="T T T"
C        0.00000000       0.00000000      13.70720000      -0.02056800      -0.13259600       0.92781100
C       -0.46487000       2.41565000      13.70716000      -0.09006900       0.09011800       0.91316400
C       -0.92980000       4.83129000      13.70153000       0.03795500      -0.10232100       0.00793900
C        1.85958000       1.61041000      13.70715000       0.14263600       0.03771400       0.91195100
C        1.39467000       4.02611000      13.70153000       0.03122500       0.09280600       0.00787100
C        4.18405000       0.80523000      13.70153000      -0.08812000       0.01962900       0.00772300
C        3.71912000       3.22088000      13.70081000      -0.02314500      -0.00604200      -0.21142200
C       -2.32448000       4.56294000      13.70166000       0.06429300      -0.08950900      -0.00341400
C        0.46490000       1.34206000      13.86491000      -0.01030900       0.00067500      -1.26471900
C       -0.00003000       3.75770000      13.70124000      -0.00144100       0.17470600      -0.00274700
C        2.78935000       0.53682000      13.70120000       0.15990800      -0.08155400      -0.00537100
C        2.32448000       2.95247000      13.70166000       0.06168100       0.09396300       0.00057400
C        1.85954000       5.36812000      13.70120000      -0.13667700      -0.10378400      -0.00911800
C        4.64892000       2.14723000      13.70166000      -0.11642400       0.00992100       0.00055900
C        0.00000000       0.00000000      10.29125000      -0.13575200      -0.37341800      -0.28327200
C       -0.46487000       2.41565000      10.29129000      -0.23746900       0.32007400      -0.27380300
C       -0.92980000       4.83129000      10.30050000       0.11751700      -0.18602200      -0.03199200
C        1.85958000       1.61041000      10.29129000       0.41092600       0.06125900      -0.27416100
C        1.39467000       4.02611000      10.30050000       0.06920100       0.20685400      -0.03207600
C        4.18405000       0.80523000      10.30050000      -0.19556100      -0.00354400      -0.03229500
C        3.71912000       3.22088000      10.29830000      -0.01755500      -0.00452000      -0.00331700
C       -1.39467000       3.48929000      10.30004000      -0.11211300       0.15394200      -0.02884400
C        1.39471000       0.26841000      10.29150000       0.23584800      -0.29105100      -0.26068000
C        0.92977000       2.68406000      10.29149000       0.13268900       0.37036800      -0.27178500
C        0.46490000       5.09970000      10.29791000      -0.00661100      -0.00335200       0.00464900
C        3.25428000       1.87882000      10.30000000       0.19212000       0.01668000      -0.02920100
C        2.78935000       4.29447000      10.30004000      -0.07214000      -0.17904700      -0.02910000
C        5.57873000       1.07359000      10.29149000      -0.38847600      -0.09059200      -0.26065800
Li       0.46485000       1.34234000      11.85346000      -0.00356600      -0.00135600       0.52573200
29
Lattice="6.508500099 0.0 0.0 -3.25425005 5.636526426 0.0 0.0 0.0 24.0" Properties=species:S:1:pos:R:3:forces:R:3 stress="-0.007974464134684745 8.862942958754227e-07 9.880308946273199e-06 8.862942958754227e-07 -0.007944273955042849 1.404339553323733e-06 9.880308946273199e-06 1.404339553323733e-06 -0.0014095075228799645" free_energy=-261.75127265 energy=-261.74935514 pbc="T T T"
C        0.00000000       0.00000000      13.73956000      -0.06322900      -0.24686100       0.21118500
C       -0.46487000       2.41565000      13.73901000      -0.17344200       0.17522200       0.19451800
C       -0.92980000       4.83129000      13.70181000       0.02841600      -0.10048600      -0.02719500
C        1.85958000       1.61041000      13.73896000       0.24877800       0.06200800       0.19281800
C        1.39467000       4.02611000      13.70181000       0.03517000       0.08346600      -0.02723300
C        4.18405000       0.80523000      13.70180000      -0.08129500       0.02758600      -0.02763300
C        3.71912000       3.22088000      13.69344000      -0.02613000      -0.01111200      -0.09230300
C       -2.32448000       4.56294000      13.70154000       0.05850800      -0.06950900       0.15633200
C        0.46490000       1.34206000      13.82080000       0.00255100       0.00768500       0.18200900
C       -0.00003000       3.75770000      13.70114000       0.00573000       0.14857200       0.15612600
C        2.78935000       0.53682000      13.70101000       0.13413700      -0.07394200       0.15484800
C        2.32448000       2.95247000      13.70168000       0.04841900       0.07924400       0.15558700
C        1.85954000       5.36812000      13.70088000      -0.11938700      -0.08078300       0.16009000
C        4.64892000       2.14723000      13.70168000      -0.09639600       0.00566800       0.15558200
C        0.00000000       0.00000000      10.28137000      -0.12658300      -0.35021300      -0.23224200
C       -0.46487000       2.41565000      10.28174000      -0.22768500       0.29534500      -0.20793600
C       -0.92980000       4.83129000      10.29938000       0.11640800      -0.18345000      -0.04844200
C        1.85958000       1.61041000      10.28173000       0.38159500       0.05824600      -0.21020300
C        1.39467000       4.02611000      10.29938000       0.06846700       0.20389300      -0.05087600
C        4.18405000       0.80523000      10.29937000      -0.19245600      -0.00320700      -0.04816800
C        3.71912000       3.22088000      10.29819000      -0.01711900      -0.00431000      -0.00243000
C       -1.39467000       3.48929000      10.29903000      -0.10985000       0.15199200      -0.04998700
C        1.39471000       0.26841000      10.28241000       0.22336600      -0.27629600      -0.21872400
C        0.92977000       2.68406000      10.28201000       0.13222600       0.34488500      -0.21942100
C        0.46490000       5.09970000      10.29807000      -0.00618500      -0.00311500      -0.00026200
C        3.25428000       1.87882000      10.29898000       0.18932000       0.01646300      -0.05209200
C        2.78935000       4.29447000      10.29902000      -0.07005500      -0.17567000      -0.05215500
C        5.57873000       1.07359000      10.28240000      -0.36288800      -0.08053200      -0.21885100
Li       0.46473000       1.34229000      11.87179000      -0.00039100      -0.00078900       0.06705900
29
Lattice="6.508500099 0.0 0.0 -3.25425005 5.636526426 0.0 0.0 0.0 24.0" Properties=species:S:1:pos:R:3:forces:R:3 stress="-0.007910831949146364 9.886550455399081e-06 1.7807025536144936e-05 9.886550455399081e-06 -0.007903810251379746 -4.718580899167743e-06 1.7807025536144936e-05 -4.718580899167743e-06 -0.0011341820723190022" free_energy=-261.77874069 energy=-261.77684392 pbc="T T T"
C        0.00000000       0.00000000      13.75084000      -0.06485800      -0.25066900       0.17669100
C       -0.46487000       2.41565000      13.74940000      -0.17438300       0.17670800       0.18759900
C       -0.92980000       4.83129000      13.70036000       0.02618600      -0.10175600       0.11627400
C        1.85958000       1.61041000      13.74927000       0.24930700       0.06170000       0.18602300
C        1.39467000       4.02611000      13.70036000       0.03611400       0.08243500       0.11771600
C        4.18405000       0.80523000      13.70033000      -0.08124700       0.02929600       0.11711000
C        3.71912000       3.22088000      13.68852000      -0.01786000      -0.01546800       0.09804600
C       -2.32448000       4.56294000      13.70986000       0.04879100      -0.06551300       0.04439700
C        0.46490000       1.34206000      13.83044000      -0.00042500       0.00730300       0.19455500
C       -0.00003000       3.75770000      13.70945000       0.00483300       0.14710600       0.04330200
C        2.78935000       0.53682000      13.70925000       0.13312700      -0.07418400       0.04722800
C        2.32448000       2.95247000      13.70996000       0.04961200       0.07956700       0.04451300
C        1.85954000       5.36812000      13.70940000      -0.10810500      -0.08172800       0.04481200
C        4.64892000       2.14723000      13.70996000      -0.09541700       0.00712200       0.04488200
C        0.00000000       0.00000000      10.26899000      -0.12373700      -0.34183300      -0.15779800
C       -0.46487000       2.41565000      10.27066000      -0.22371800       0.28567100      -0.17181100
C       -0.92980000       4.83129000      10.29680000       0.11361300      -0.18096800      -0.06938400
C        1.85958000       1.61041000      10.27053000       0.37105600       0.05668500      -0.17217800
C        1.39467000       4.02611000      10.29667000       0.06687100       0.20014000      -0.06920100
C        4.18405000       0.80523000      10.29680000      -0.18910000      -0.00316500      -0.06989100
C        3.71912000       3.22088000      10.29806000      -0.01751300      -0.00471500      -0.02957300
C       -1.39467000       3.48929000      10.29637000      -0.10783600       0.14787100      -0.06338200
C        1.39471000       0.26841000      10.27075000       0.22733600      -0.26630900      -0.17272400
C        0.92977000       2.68406000      10.27032000       0.12229500       0.33460700      -0.18020200
C        0.46490000       5.09970000      10.29806000      -0.00656400      -0.00340400      -0.02695500
C        3.25428000       1.87882000      10.29620000       0.18559200       0.01595600      -0.05546800
C        2.78935000       4.29447000      10.29625000      -0.06141500      -0.16617400      -0.06732100
C        5.57873000       1.07359000      10.27074000      -0.36246600      -0.07132000      -0.17217000
Li       0.46471000       1.34225000      11.87538000      -0.00008900      -0.00496300       0.01490900
29
Lattice="6.508500099 0.0 0.0 -3.25425005 5.636526426 0.0 0.0 0.0 24.0" Properties=species:S:1:pos:R:3:forces:R:3 stress="-0.007865481143837698 3.7842269830230196e-05 9.318573124943706e-06 3.7842269830230196e-05 -0.007845895288200675 9.611924053860219e-06 9.318573124943706e-06 9.611924053860219e-06 -0.0007945565947431905" free_energy=-261.80343868 energy=-261.80156544 pbc="T T T"
C        0.00000000       0.00000000      13.76346000      -0.06553400      -0.25685500       0.09294500
C       -0.46487000       2.41565000      13.76245000      -0.18310900       0.19512800       0.09522200
C       -0.92980000       4.83129000      13.70659000       0.02918600      -0.10765400       0.07226600
C        1.85958000       1.61041000      13.76221000       0.26926600       0.07243200       0.09750900
C        1.39467000       4.02611000      13.70667000       0.03298800       0.08331400       0.07224800
C        4.18405000       0.80523000      13.70660000      -0.08261400       0.03572500       0.07348100
C        3.71912000       3.22088000      13.69292000      -0.02489700      -0.01123500       0.06275300
C       -2.32448000       4.56294000      13.71397000       0.04268400      -0.06426200       0.10355200
C        0.46490000       1.34206000      13.84250000      -0.01241000      -0.00027500       0.17755400
C       -0.00003000       3.75770000      13.71350000       0.00552900       0.13851900       0.11110800
C        2.78935000       0.53682000      13.71350000       0.12821800      -0.07431800       0.10603900
C        2.32448000       2.95247000      13.71407000       0.04126000       0.07573700       0.09973000
C        1.85954000       5.36812000      13.71357000      -0.10081400      -0.07412300       0.10760200
C        4.64892000       2.14723000      13.71409000      -0.07977300       0.01121700       0.10020000
C        0.00000000       0.00000000      10.25758000      -0.11987700      -0.33598300      -0.14201700
C       -0.46487000       2.41565000      10.25873000      -0.21699700       0.28111500      -0.13601900
C       -0.92980000       4.83129000      10.29239000       0.12250800      -0.17911700      -0.07216800
C        1.85958000       1.61041000      10.25855000       0.36554900       0.05444700      -0.13351900
C        1.39467000       4.02611000      10.29225000       0.06024800       0.18853300      -0.07814300
C        4.18405000       0.80523000      10.29237000      -0.19001300      -0.00273800      -0.06924100
C        3.71912000       3.22088000      10.29637000      -0.01663900      -0.00655400      -0.05210600
C       -1.39467000       3.48929000      10.29229000      -0.10446700       0.14460000      -0.07977800
C        1.39471000       0.26841000      10.25866000       0.22167900      -0.25782300      -0.13569100
C        0.92977000       2.68406000      10.25780000       0.11417600       0.31716000      -0.13589500
C        0.46490000       5.09970000      10.29655000      -0.00479900      -0.00294200      -0.06110800
C        3.25428000       1.87882000      10.29254000       0.18323700       0.01569100      -0.07620400
C        2.78935000       4.29447000      10.29192000      -0.05987900      -0.16222000      -0.06981200
C        5.57873000       1.07359000      10.25868000      -0.35614400      -0.07493900      -0.13499700
Li       0.46470000       1.34196000      11.87722000       0.00143800      -0.00258100       0.00448900
29
Lattice="6.508500099 0.0 0.0 -3.25425005 5.636526426 0.0 0.0 0.0 24.0" Properties=species:S:1:pos:R:3:forces:R:3 stress="-0.007681718632153442 6.299555160753973e-05 5.798361977945547e-06 6.299555160753973e-05 -0.007730914207083655 1.3968497423726731e-05 5.798361977945547e-06 1.3968497423726731e-05 -4.371552991768634e-05" free_energy=-261.84646033 energy=-261.84463485 pbc="T T T"
C        0.00000000       0.00000000      13.78543000      -0.06508100      -0.25496900       0.03789400
C       -0.46487000       2.41565000      13.78491000      -0.19364300       0.19529300       0.06144400
C       -0.92980000       4.83129000      13.71921000       0.03145100      -0.09420200       0.10178300
C        1.85958000       1.61041000      13.78484000       0.26613400       0.07920700       0.06029700
C        1.39467000       4.02611000      13.71934000       0.04351700       0.07213500       0.09908700
C        4.18405000       0.80523000      13.71939000      -0.08881200       0.02164600       0.09365500
C        3.71912000       3.22088000      13.70255000      -0.02173400      -0.00570000       0.11639700
C       -2.32448000       4.56294000      13.72920000       0.04844300      -0.06664000       0.07832800
C        0.46490000       1.34206000      13.86981000      -0.00636100       0.00515600       0.03284800
C       -0.00003000       3.75770000      13.72954000       0.00439400       0.13181100       0.08595100
C        2.78935000       0.53682000      13.72910000       0.11861800      -0.06656600       0.09904200
C        2.32448000       2.95247000      13.72887000       0.04431800       0.06916300       0.10043800
C        1.85954000       5.36812000      13.72930000      -0.10750900      -0.07484200       0.08103200
C        4.64892000       2.14723000      13.72896000      -0.07592200       0.00748900       0.09953500
C        0.00000000       0.00000000      10.23196000      -0.11709300      -0.32731800      -0.03615700
C       -0.46487000       2.41565000      10.23350000      -0.21518900       0.28346000      -0.07802600
C       -0.92980000       4.83129000      10.28081000       0.11472300      -0.15888400      -0.09153800
C        1.85958000       1.61041000      10.23356000       0.36045400       0.06416500      -0.07324000
C        1.39467000       4.02611000      10.27997000       0.06597800       0.17388200      -0.08599900
C        4.18405000       0.80523000      10.28110000      -0.17860400      -0.00914000      -0.08962500
C        3.71912000       3.22088000      10.28924000      -0.01165200      -0.00991100      -0.09642500
C       -1.39467000       3.48929000      10.28008000      -0.10212500       0.13319000      -0.08636800
C        1.39471000       0.26841000      10.23334000       0.21918700      -0.25980000      -0.06941600
C        0.92977000       2.68406000      10.23212000       0.10021200       0.29749300      -0.06274000
C        0.46490000       5.09970000      10.28855000      -0.00431600      -0.00179200      -0.09619500
C        3.25428000       1.87882000      10.28103000       0.17278400       0.01511700      -0.10395800
C        2.78935000       4.29447000      10.28065000      -0.05916600      -0.15351500      -0.10231300
C        5.57873000       1.07359000      10.23346000      -0.34170500      -0.06502400      -0.06999200
Li       0.46484000       1.34146000      11.88018000      -0.00129900      -0.00090500      -0.00574300
29
Lattice="6.508500099 0.0 0.0 -3.25425005 5.636526426 0.0 0.0 0.0 24.0" Properties=species:S:1:pos:R:3:forces:R:3 stress="-0.007740688410374787 4.086316024715769e-05 -1.0111244783930879e-06 4.086316024715769e-05 -0.007733729127699428 -1.6945697276773048e-05 -1.0111244783930879e-06 -1.6945697276773048e-05 0.00016185481465240466" free_energy=-261.8626887 energy=-261.86088179 pbc="T T T"
C        0.00000000       0.00000000      13.79077000      -0.06551100      -0.25163500       0.05177600
C       -0.46487000       2.41565000      13.79179000      -0.19151400       0.19414400       0.04507400
C       -0.92980000       4.83129000      13.72716000       0.03006700      -0.09023600       0.08299000
C        1.85958000       1.61041000      13.79167000       0.26493000       0.07527200       0.05364700
C        1.39467000       4.02611000      13.72713000       0.04387600       0.07086900       0.08360800
C        4.18405000       0.80523000      13.72685000      -0.08875000       0.01781800       0.08964900
C        3.71912000       3.22088000      13.71099000      -0.01821300      -0.01498200       0.10236200
C       -2.32448000       4.56294000      13.73591000       0.04877800      -0.06577400       0.08528500
C        0.46490000       1.34206000      13.87475000      -0.01310200       0.00221500       0.02199900
C       -0.00003000       3.75770000      13.73682000       0.00284600       0.13269200       0.09097600
C        2.78935000       0.53682000      13.73716000       0.10635800      -0.06364400       0.08271000
C        2.32448000       2.95247000      13.73693000       0.05261600       0.08037900       0.08736600
C        1.85954000       5.36812000      13.73624000      -0.10816300      -0.07921300       0.07357900
C        4.64892000       2.14723000      13.73697000      -0.07534400      -0.00357500       0.08577600
C        0.00000000       0.00000000      10.22653000      -0.11650000      -0.32101600      -0.04308800
C       -0.46487000       2.41565000      10.22547000      -0.21135300       0.28153200      -0.05703900
C       -0.92980000       4.83129000      10.27365000       0.11248100      -0.15050600      -0.08281100
C        1.85958000       1.61041000      10.22586000       0.35704400       0.06282500      -0.06701500
C        1.39467000       4.02611000      10.27308000       0.06868800       0.17274700      -0.08227900
C        4.18405000       0.80523000      10.27410000      -0.17568900      -0.01507600      -0.09091300
C        3.71912000       3.22088000      10.28233000      -0.00803100      -0.00445600      -0.10078900
C       -1.39467000       3.48929000      10.27318000      -0.10085600       0.13881000      -0.09636000
C        1.39471000       0.26841000      10.22585000       0.22024000      -0.25668600      -0.05056800
C        0.92977000       2.68406000      10.22500000       0.10441800       0.28143700      -0.05393100
C        0.46490000       5.09970000      10.28155000      -0.00631900       0.00402700      -0.09452100
C        3.25428000       1.87882000      10.27311000       0.17139500       0.01583300      -0.07902700
C        2.78935000       4.29447000      10.27285000      -0.06365400      -0.16296600      -0.07127600
C        5.57873000       1.07359000      10.22594000      -0.33864200      -0.05270600      -0.05293800
Li       0.46478000       1.34134000      11.88034000      -0.00209700       0.00187400      -0.01424200
29
Lattice="6.508500099 0.0 0.0 -3.25425005 5.636526426 0.0 0.0 0.0 24.0" Properties=species:S:1:pos:R:3:forces:R:3 stress="-0.007851069499266033 3.234974179945293e-05 -9.574474999104918e-06 3.234974179945293e-05 -0.007895733738570854 -3.9296541456560995e-05 -9.574474999104918e-06 -3.9296541456560995e-05 0.0007366603560914975" free_energy=-261.91136569 energy=-261.90959373 pbc="T T T"
C        0.00000000       0.00000000      13.81200000      -0.06656700      -0.25118300       0.02296800
C       -0.46487000       2.41565000      13.81312000      -0.19012800       0.19220900       0.03841800
C       -0.92980000       4.83129000      13.75341000       0.02884800      -0.09209400       0.10161600
C        1.85958000       1.61041000      13.81466000       0.26266200       0.07851400       0.01789300
C        1.39467000       4.02611000      13.75339000       0.04013700       0.06915300       0.09442300
C        4.18405000       0.80523000      13.75405000      -0.08856500       0.01845700       0.08160600
C        3.71912000       3.22088000      13.74048000      -0.00981500      -0.00719000       0.06923900
C       -2.32448000       4.56294000      13.76169000       0.04835700      -0.07063400       0.08232700
C        0.46490000       1.34206000      13.88926000      -0.01786600      -0.01133800       0.02118500
C       -0.00003000       3.75770000      13.76436000       0.00369600       0.13703500       0.05575700
C        2.78935000       0.53682000      13.76362000       0.09494800      -0.06748500       0.07293700
C        2.32448000       2.95247000      13.76409000       0.06063300       0.09639600       0.07611900
C        1.85954000       5.36812000      13.76002000      -0.11008400      -0.07967600       0.09322800
C        4.64892000       2.14723000      13.76380000      -0.07166700      -0.01625900       0.07415400
C        0.00000000       0.00000000      10.20677000      -0.11077000      -0.30702900      -0.09348500
C       -0.46487000       2.41565000      10.20090000      -0.20071000       0.25537600      -0.04052400
C       -0.92980000       4.83129000      10.24861000       0.11147700      -0.15371400      -0.09769600
C        1.85958000       1.61041000      10.19966000       0.32972000       0.05732600       0.00604700
C        1.39467000       4.02611000      10.24820000       0.06976500       0.17248100      -0.07671700
C        4.18405000       0.80523000      10.24766000      -0.17783600      -0.00994200      -0.07153500
C        3.71912000       3.22088000      10.25522000      -0.00519800      -0.00115100      -0.06587500
C       -1.39467000       3.48929000      10.24558000      -0.11773800       0.15843600      -0.05900600
C        1.39471000       0.26841000      10.20297000       0.21667300      -0.24284300      -0.03480500
C        0.92977000       2.68406000      10.20162000       0.10730900       0.27579700      -0.05195300
C        0.46490000       5.09970000      10.25542000       0.01104100      -0.00170500      -0.08470000
C        3.25428000       1.87882000      10.24830000       0.16923300       0.01423900      -0.10684500
C        2.78935000       4.29447000      10.24965000      -0.05749600      -0.16410000      -0.06742400
C        5.57873000       1.07359000      10.20261000      -0.33135600      -0.05359700      -0.03031000
Li       0.46434000       1.34147000      11.87887000       0.00129400       0.00452100      -0.02704100
29
Lattice="6.508500099 0.0 0.0 -3.25425005 5.636526426 0.0 0.0 0.0 24.0" Properties=species:S:1:pos:R:3:forces:R:3 stress="-0.007900695738325931 9.649373108615517e-06 -7.79564489822819e-06 9.649373108615517e-06 -0.007894398055617915 -3.104526639214333e-05 -7.79564489822819e-06 -3.104526639214333e-05 0.0009973432262431377" free_energy=-261.92643808 energy=-261.92466939 pbc="T T T"
C        0.00000000       0.00000000      13.81717000      -0.06471800      -0.24610600       0.06052100
C       -0.46487000       2.41565000      13.81927000      -0.18211800       0.19412400       0.04239300
C       -0.92980000       4.83129000      13.76387000       0.04162600      -0.08906700       0.07058000
C        1.85958000       1.61041000      13.81988000       0.26336400       0.07216900       0.04149300
C        1.39467000       4.02611000      13.76343000       0.03384600       0.05927300       0.07255000
C        4.18405000       0.80523000      13.76348000      -0.09811500       0.02066800       0.07262200
C        3.71912000       3.22088000      13.74952000      -0.00841600      -0.00484900       0.08667400
C       -2.32448000       4.56294000      13.77091000       0.05189900      -0.08094900       0.06761500
C        0.46490000       1.34206000      13.89325000      -0.01651600      -0.00857100       0.00345200
C       -0.00003000       3.75770000      13.77234000       0.00385000       0.13941700       0.07942000
C        2.78935000       0.53682000      13.77246000       0.09715900      -0.07147700       0.06555100
C        2.32448000       2.95247000      13.77322000       0.06004400       0.10164600       0.05262300
C        1.85954000       5.36812000      13.76958000      -0.11968700      -0.07370400       0.07809800
C        4.64892000       2.14723000      13.77276000      -0.07158900      -0.01359900       0.05520800
C        0.00000000       0.00000000      10.19772000      -0.10925900      -0.30292100      -0.04368900
C       -0.46487000       2.41565000      10.19408000      -0.19757100       0.25743100      -0.03332700
C       -0.92980000       4.83129000      10.23862000       0.12645300      -0.16010800      -0.06799400
C        1.85958000       1.61041000      10.19531000       0.32566100       0.05812900      -0.03979600
C        1.39467000       4.02611000      10.23946000       0.05784900       0.16501400      -0.07034600
C        4.18405000       0.80523000      10.23899000      -0.19165500      -0.00972900      -0.06853400