29
Lattice="6.508500099 0.0 0.0 -3.25425005 5.636526426 0.0 0.0 0.0 24.0" Properties=species:S:1:pos:R:3:forces:R:3 stress="-0.007842487424217942 1.7975546282543784e-05 -5.242867665741937e-07 1.7975546282543784e-05 -0.00783232000585188 6.054263852106761e-07 -5.242867665741937e-07 6.054263852106761e-07 0.002462506285998603" free_energy=-261.92577181 energy=-261.92349015 pbc="T T T"
C        0.00000000       0.00000000      13.90000000      -0.06682500      -0.27266900      -0.00879900
C       -0.46487000       2.41565000      13.90000000      -0.18518600       0.19503400      -0.00778200
C       -0.92980000       4.83129000      13.90000000       0.03836600      -0.11619200       0.00193000
C        1.85958000       1.61041000      13.90000000       0.28060600       0.06130800      -0.00780700
C        1.39467000       4.02611000      13.90000000       0.04278900       0.10149500       0.00192800
C        4.18405000       0.80523000      13.90000000      -0.10094400       0.02690600       0.00192600
C        3.71912000       3.22088000      13.90000000      -0.02366800      -0.00532700      -0.01775600
C       -2.32448000       4.56294000      13.90000000       0.05446100      -0.09149300      -0.01136600
C        0.46490000       1.34206000      13.90000000      -0.00917800       0.00042600       1.34799000
C       -0.00003000       3.75770000      13.90000000      -0.01358600       0.17944500      -0.02210700
C        2.78935000       0.53682000      13.90000000       0.16926300      -0.07266000      -0.02114500
C        2.32448000       2.95247000      13.90000000       0.06353200       0.08922500      -0.01137400
C        1.85954000       5.36812000      13.90000000      -0.13813700      -0.11148100      -0.02113100
C        4.64892000       2.14723000      13.90000000      -0.11135300       0.01446000      -0.01132400
C        0.00000000       0.00000000      10.10000000      -0.06908000      -0.18990900      -0.00888600
C       -0.46487000       2.41565000      10.10000000      -0.10543600       0.16229600      -0.00986900
C       -0.92980000       4.83129000      10.10000000       0.09960500      -0.15861900       0.03524500
C        1.85958000       1.61041000      10.10000000       0.21736600       0.01982400      -0.00988200
C        1.39467000       4.02611000      10.10000000       0.05459100       0.17882500       0.03524500
C        4.18405000       0.80523000      10.10000000      -0.16389500      -0.00096800       0.03524800
C        3.71912000       3.22088000      10.10000000      -0.01818800      -0.00375900      -0.00578900
C       -1.39467000       3.48929000      10.10000000      -0.10073700       0.13198600       0.03236700
C        1.39471000       0.26841000      10.10000000       0.12178700      -0.14884100      -0.00944600
C        0.92977000       2.68406000      10.10000000       0.07008200       0.19256300      -0.00950100
C        0.46490000       5.09970000      10.10000000      -0.00583100      -0.00258200      -0.00790100
C        3.25428000       1.87882000      10.10000000       0.16646100       0.01859700       0.03330000
C        2.78935000       4.29447000      10.10000000      -0.05871900      -0.15714200       0.03234300
C        5.57873000       1.07359000      10.10000000      -0.20769200      -0.04403200      -0.00954200
Li       0.46490000       1.34206000      12.00000000      -0.00045100       0.00328300      -1.34611500
29
Lattice="6.508500099 0.0 0.0 -3.25425005 5.636526426 0.0 0.0 0.0 24.0" Properties=species:S:1:pos:R:3:forces:R:3 stress="-0.007913459624488363 5.829569523574962e-06 7.876784516864671e-06 5.829569523574962e-06 -0.007886845829575596 -3.058339471682796e-07 7.876784516864671e-06 -3.058339471682796e-07 0.0036571623402382883" free_energy=-262.01954265 energy=-262.01735182 pbc="T T T"
C        0.00000000       0.00000000      13.89958000      -0.05384400      -0.22796200       0.33134500
C       -0.46487000       2.41565000      13.89962000      -0.15356600       0.16136000       0.33128500
C       -0.92980000       4.83129000      13.90009000       0.03516700      -0.09987800      -0.01948600
C        1.85958000       1.61041000      13.89962000       0.23503300       0.05087800       0.33137900
C        1.39467000       4.02611000      13.90009000       0.02988000       0.09111900      -0.01951500
C        4.18405000       0.80523000      13.90009000      -0.08587200       0.02141500      -0.01919200
C        3.71912000       3.22088000      13.89914000      -0.02370900      -0.00526200      -0.10619900
C       -2.32448000       4.56294000      13.89945000       0.06018900      -0.09438400      -0.03025000
C        0.46490000       1.34206000      13.96503000      -0.00584000       0.00267500      -0.17306500
C       -0.00003000       3.75770000      13.89893000      -0.00003500       0.17666500      -0.03053600
C        2.78935000       0.53682000      13.89898000       0.15916200      -0.08306300      -0.02805200
C        2.32448000       2.95247000      13.89945000       0.06330000       0.09647300      -0.02994100
C        1.85954000       5.36812000      13.89898000      -0.14257700      -0.09806900      -0.02834000
C        4.64892000       2.14723000      13.89945000      -0.11746500       0.01077500      -0.02991800
C        0.00000000       0.00000000      10.09957000      -0.07817700      -0.21286400      -0.02938100
C       -0.46487000       2.41565000      10.09952000      -0.12140500       0.18158400      -0.02996800
C       -0.92980000       4.83129000      10.10170000       0.10521200      -0.16523500       0.02015200
C        1.85958000       1.61041000      10.09952000       0.24146100       0.02386200      -0.02961200
C        1.39467000       4.02611000      10.10170000       0.05755300       0.18720700       0.02011100
C        4.18405000       0.80523000      10.10170000      -0.17335400      -0.00254000       0.02035700
C        3.71912000       3.22088000      10.09972000      -0.01849100      -0.00362800       0.02449100
C       -1.39467000       3.48929000      10.10156000      -0.10584700       0.13786100       0.01882800
C        1.39471000       0.26841000      10.09954000       0.13683100      -0.16693500      -0.02550400
C        0.92977000       2.68406000      10.09954000       0.07771400       0.21527000      -0.02595400
C        0.46490000       5.09970000      10.09962000      -0.00583600      -0.00247200       0.02793600
C        3.25428000       1.87882000      10.10161000       0.17458200       0.02002800       0.01140100
C        2.78935000       4.29447000      10.10156000      -0.05681900      -0.16534700       0.01495200
C        5.57873000       1.07359000      10.09954000      -0.23185000      -0.04857400      -0.02565200
Li       0.46488000       1.34222000      11.93506000      -0.00139800      -0.00096100      -0.47167100
29
Lattice="6.508500099 0.0 0.0 -3.25425005 5.636526426 0.0 0.0 0.0 24.0" Properties=species:S:1:pos:R:3:forces:R:3 stress="-0.007967935516139071 7.845576971235256e-06 2.3855047879125812e-05 7.845576971235256e-06 -0.007940972196715254 2.4716376138497703e-06 2.3855047879125812e-05 2.4716376138497703e-06 0.0036386874732256733" free_energy=-262.03828698 energy=-262.03614419 pbc="T T T"
C        0.00000000       0.00000000      13.91461000      -0.06280300      -0.24545800       0.07639000
C       -0.46487000       2.41565000      13.91466000      -0.17153200       0.18066000       0.05265200
C       -0.92980000       4.83129000      13.89921000       0.02918000      -0.09637000      -0.04542700
C        1.85958000       1.61041000      13.91466000       0.25657600       0.06326500       0.05128500
C        1.39467000       4.02611000      13.89921000       0.03026000       0.08265800      -0.04543200
C        4.18405000       0.80523000      13.89922000      -0.07909400       0.02441900      -0.04458800
C        3.71912000       3.22088000      13.89432000      -0.02679100      -0.01090800      -0.07501800
C       -2.32448000       4.56294000      13.89808000       0.05999300      -0.08393100       0.04968500
C        0.46490000       1.34206000      13.95718000      -0.01537800      -0.00111500       0.13314700
C       -0.00003000       3.75770000      13.89755000      -0.00021400       0.16178500       0.05782900
C        2.78935000       0.53682000      13.89771000       0.14889400      -0.07598000       0.04922000
C        2.32448000       2.95247000      13.89809000       0.05880400       0.08807600       0.04577400
C        1.85954000       5.36812000      13.89769000      -0.12035100      -0.09523100       0.05708000
C        4.64892000       2.14723000      13.89810000      -0.11012600       0.01109600       0.04577000
C        0.00000000       0.00000000      10.09824000      -0.08090600      -0.22208100      -0.03572100
C       -0.46487000       2.41565000      10.09816000      -0.12731300       0.18816000      -0.03327100
C       -0.92980000       4.83129000      10.10261000       0.10728100      -0.16785700       0.01747300
C        1.85958000       1.61041000      10.09818000       0.25075700       0.02527900      -0.03519500
C        1.39467000       4.02611000      10.10261000       0.05892700       0.18916900       0.01626800
C        4.18405000       0.80523000      10.10262000      -0.17564800      -0.00358200       0.01549000
C        3.71912000       3.22088000      10.10083000      -0.01785100      -0.00425500       0.02001200
C       -1.39467000       3.48929000      10.10242000      -0.10705200       0.13915800       0.01537900
C        1.39471000       0.26841000      10.09839000       0.14062800      -0.16983100      -0.02696800
C        0.92977000       2.68406000      10.09836000       0.08204600       0.22419500      -0.03157600
C        0.46490000       5.09970000      10.10089000      -0.00548600      -0.00302800       0.02350300
C        3.25428000       1.87882000      10.10212000       0.17739900       0.01992100       0.01183400
C        2.78935000       4.29447000      10.10224000      -0.05488300      -0.16145500       0.00985100
C        5.57873000       1.07359000      10.09838000      -0.24325000      -0.05449400      -0.02716900
Li       0.46482000       1.34217000      11.91366000      -0.00206700      -0.00226600      -0.34828000
29
Lattice="6.508500099 0.0 0.0 -3.25425005 5.636526426 0.0 0.0 0.0 24.0" Properties=species:S:1:pos:R:3:forces:R:3 stress="-0.007978995470310135 7.0404222939963156e-06 3.373535682539901e-05 7.0404222939963156e-06 -0.007957774339282133 -1.0885191915540402e-05 3.373535682539901e-05 -1.0885191915540402e-05 0.0038243910942480784" free_energy=-262.04785779 energy=-262.04581372 pbc="T T T"
C        0.00000000       0.00000000      13.92272000      -0.06443500      -0.24403600       0.05903400
C       -0.46487000       2.41565000      13.92114000      -0.17177800       0.17691200       0.04331600
C       -0.92980000       4.83129000      13.89593000       0.02706200      -0.09667500       0.05335200
C        1.85958000       1.61041000      13.92105000       0.24807800       0.06084200       0.04015400
C        1.39467000       4.02611000      13.89593000       0.02232300       0.07842800       0.05495100
C        4.18405000       0.80523000      13.89600000      -0.07427000       0.02772000       0.04768600
C        3.71912000       3.22088000      13.88827000      -0.01829500      -0.01438300       0.04402200
C       -2.32448000       4.56294000      13.90122000       0.05671100      -0.08292400      -0.01316700
C        0.46490000       1.34206000      13.96479000      -0.00492700       0.00337800       0.02194000
C       -0.00003000       3.75770000      13.90124000       0.00169300       0.15472600      -0.01864100
C        2.78935000       0.53682000      13.90083000       0.13978800      -0.07312500      -0.01331600
C        2.32448000       2.95247000      13.90097000       0.05845600       0.08758300      -0.01816700
C        1.85954000       5.36812000      13.90136000      -0.12004800      -0.08954300      -0.01299300
C        4.64892000       2.14723000      13.90097000      -0.10680400       0.01043000      -0.01734800
C        0.00000000       0.00000000      10.09554000      -0.08506400      -0.23303000      -0.03971500
C       -0.46487000       2.41565000      10.09563000      -0.13154900       0.20325400      -0.02789800
C       -0.92980000       4.83129000      10.10399000       0.11099800      -0.17162800       0.00745700
C        1.85958000       1.61041000      10.09551000       0.26854300       0.02669100      -0.03072000
C        1.39467000       4.02611000      10.10390000       0.05751500       0.19197200       0.00266200
C        4.18405000       0.80523000      10.10386000      -0.18024400      -0.00202200       0.00549000
C        3.71912000       3.22088000      10.10241000      -0.01779700      -0.00370000       0.01848700
C       -1.39467000       3.48929000      10.10363000      -0.10914800       0.14163700       0.00751600
C        1.39471000       0.26841000      10.09632000       0.14115000      -0.17990000      -0.03722200
C        0.92977000       2.68406000      10.09598000       0.08650300       0.23551200      -0.03928500
C        0.46490000       5.09970000      10.10274000      -0.00696900      -0.00253900       0.02245100
C        3.25428000       1.87882000      10.10303000       0.18005000       0.02096800       0.00794400
C        2.78935000       4.29447000      10.10304000      -0.05565900      -0.16370600       0.00710800
C        5.57873000       1.07359000      10.09629000      -0.25033800      -0.06130100      -0.03751100
Li       0.46466000       1.34201000      11.88572000      -0.00154600      -0.00154200      -0.13758800
29
Lattice="6.508500099 0.0 0.0 -3.25425005 5.636526426 0.0 0.0 0.0 24.0" Properties=species:S:1:pos:R:3:forces:R:3 stress="-0.008017018743905018 7.233909076898697e-06 2.130227064663956e-05 7.233909076898697e-06 -0.00800718836703175 -1.232073901449355e-05 2.130227064663956e-05 -1.232073901449355e-05 0.0038777809633108833" free_energy=-262.0499294 energy=-262.04791325 pbc="T T T"
C        0.00000000       0.00000000      13.92712000      -0.06542300      -0.24569300       0.00424400
C       -0.46487000       2.41565000      13.92458000      -0.17698300       0.17250400      -0.00419100
C       -0.92980000       4.83129000      13.89751000       0.02390800      -0.08954300       0.01992900
C        1.85958000       1.61041000      13.92435000       0.24471500       0.06395100      -0.00762400
C        1.39467000       4.02611000      13.89757000       0.02761700       0.07500500       0.01995400
C        4.18405000       0.80523000      13.89736000      -0.07048800       0.02623300       0.02013100
C        3.71912000       3.22088000      13.88882000      -0.01822500      -0.01441600       0.02603600
C       -2.32448000       4.56294000      13.90122000       0.05513300      -0.08006500       0.02393500
C        0.46490000       1.34206000      13.96691000      -0.00251000       0.00323000       0.01363100
C       -0.00003000       3.75770000      13.90112000       0.00200500       0.15012700       0.01671800
C        2.78935000       0.53682000      13.90083000       0.13603800      -0.07123200       0.01928200
C        2.32448000       2.95247000      13.90071000       0.05697600       0.08494700       0.01530200
C        1.85954000       5.36812000      13.90147000      -0.11684100      -0.08826900       0.02359000
C        4.64892000       2.14723000      13.90075000      -0.10371700       0.01014700       0.01477400
C        0.00000000       0.00000000      10.09334000      -0.08674100      -0.23823500      -0.03911700
C       -0.46487000       2.41565000      10.09395000      -0.13486100       0.20733600      -0.03332200
C       -0.92980000       4.83129000      10.10458000       0.11311100      -0.17693200       0.00284600
C        1.85958000       1.61041000      10.09370000       0.27396600       0.02763400      -0.03480600
C        1.39467000       4.02611000      10.10428000       0.05437500       0.19402200      -0.00121000
C        4.18405000       0.80523000      10.10435000      -0.18203500       0.00162600       0.00178100
C        3.71912000       3.22088000      10.10351000      -0.01755500      -0.00355000       0.01501400
C       -1.39467000       3.48929000      10.10420000      -0.11000800       0.14291100       0.00774600
C        1.39471000       0.26841000      10.09435000       0.14545000      -0.18550600      -0.03211100
C        0.92977000       2.68406000      10.09386000       0.08810300       0.24051500      -0.03489000
C        0.46490000       5.09970000      10.10405000      -0.00683200      -0.00237400       0.01646600
C        3.25428000       1.87882000      10.10355000       0.18175100       0.02102000       0.00766900
C        2.78935000       4.29447000      10.10351000      -0.05615000      -0.16526500       0.00373200
C        5.57873000       1.07359000      10.09431000      -0.25474900      -0.06058200      -0.03008500
Li       0.46457000       1.34191000      11.87415000      -0.00003000       0.00045200      -0.05542300
29
Lattice="6.508500099 0.0 0.0 -3.25425005 5.636526426 0.0 0.0 0.0 24.0" Properties=species:S:1:pos:R:3:forces:R:3 stress="-0.008009697453700356 -4.007048858817052e-06 1.3288172929005458e-05 -4.007048858817052e-06 -0.008009566382008712 -1.2401878633130034e-05 1.3288172929005458e-05 -1.2401878633130034e-05 0.003885414328971839" free_energy=-262.05087903 energy=-262.04887892 pbc="T T T"
C        0.00000000       0.00000000      13.92832000      -0.06535100      -0.24615800       0.00922100
C       -0.46487000       2.41565000      13.92515000      -0.17615100       0.17163200       0.00074800
C       -0.92980000       4.83129000      13.89875000       0.02378100      -0.08931900       0.02408100
C        1.85958000       1.61041000      13.92468000       0.24162000       0.06155000       0.00044400
C        1.39467000       4.02611000      13.89882000       0.02740300       0.07365000       0.02244900
C        4.18405000       0.80523000      13.89860000      -0.06923600       0.02558600       0.02263900
C        3.71912000       3.22088000      13.89021000      -0.01640700      -0.01449200       0.02454900
C       -2.32448000       4.56294000      13.90282000       0.05234400      -0.07332000       0.01455500
C        0.46490000       1.34206000      13.96780000      -0.00078100       0.00744400      -0.01123400
C       -0.00003000       3.75770000      13.90226000       0.00270400       0.14887000       0.00389000
C        2.78935000       0.53682000      13.90213000       0.13723500      -0.07193100       0.01405100
C        2.32448000       2.95247000      13.90173000       0.05657800       0.08327400       0.01311900
C        1.85954000       5.36812000      13.90306000      -0.10909800      -0.08698800       0.01874900
C        4.64892000       2.14723000      13.90174000      -0.10411900       0.01052100       0.01435700
C        0.00000000       0.00000000      10.09058000      -0.08715300      -0.24085000      -0.01939900
C       -0.46487000       2.41565000      10.09159000      -0.14270700       0.21270100      -0.02579200
C       -0.92980000       4.83129000      10.10486000       0.11342100      -0.17749200       0.00223500
C        1.85958000       1.61041000      10.09124000       0.27195800       0.03715100      -0.02150000
C        1.39467000       4.02611000      10.10428000       0.05450000       0.19331900      -0.00151200
C        4.18405000       0.80523000      10.10455000      -0.18167800       0.00086400       0.00305500
C        3.71912000       3.22088000      10.10462000      -0.02135000      -0.00887700       0.00394100
C       -1.39467000       3.48929000      10.10479000      -0.10956200       0.14206800       0.00049600
C        1.39471000       0.26841000      10.09208000       0.14697600      -0.19003000      -0.02970300
C        0.92977000       2.68406000      10.09140000       0.08942000       0.23988000      -0.02670900
C        0.46490000       5.09970000      10.10528000      -0.00654600      -0.00302400       0.00557200
C        3.25428000       1.87882000      10.10411000       0.18179500       0.02044600      -0.00002600
C        2.78935000       4.29447000      10.10382000      -0.05556500      -0.16564700      -0.00456300
C        5.57873000       1.07359000      10.09217000      -0.25443400      -0.06084800      -0.03153100
Li       0.46456000       1.34193000      11.86856000       0.00040200       0.00001900      -0.02618100
29
Lattice="6.508500099 0.0 0.0 -3.25425005 5.636526426 0.0 0.0 0.0 24.0" Properties=species:S:1:pos:R:3:forces:R:3 stress="-0.008014185098761865 -3.913426221928803e-06 8.788044849243629e-06 -3.913426221928803e-06 -0.008012549823370884 -1.7270255751318976e-05 8.788044849243629e-06 -1.7270255751318976e-05 0.00392785034951872" free_energy=-262.05183942 energy=-262.04984988 pbc="T T T"
C        0.00000000       0.00000000      13.92978000      -0.06542300      -0.24685300      -0.00385400
C       -0.46487000       2.41565000      13.92554000      -0.17586500       0.17249500      -0.00092200
C       -0.92980000       4.83129000      13.90141000       0.02374300      -0.08826100       0.01131200
C        1.85958000       1.61041000      13.92498000       0.24214700       0.06162300       0.00491600
C        1.39467000       4.02611000      13.90130000       0.02738400       0.07348300       0.01359800
C        4.18405000       0.80523000      13.90113000      -0.06824700       0.02581500       0.02034400
C        3.71912000       3.22088000      13.89288000      -0.01997200      -0.01441900       0.01669200
C       -2.32448000       4.56294000      13.90494000       0.05251100      -0.07304700       0.02298200
C        0.46490000       1.34206000      13.96690000      -0.00139700       0.00375200      -0.00799900
C       -0.00003000       3.75770000      13.90314000       0.00300200       0.14852900       0.02006500
C        2.78935000       0.53682000      13.90411000       0.13739200      -0.07198100       0.01678300
C        2.32448000       2.95247000      13.90355000       0.05686900       0.08397300       0.01445100
C        1.85954000       5.36812000      13.90565000      -0.10942100      -0.08546900       0.01695000
C        4.64892000       2.14723000      13.90367000      -0.10397600       0.01070800       0.01542300
C        0.00000000       0.00000000      10.08778000      -0.08731700      -0.24199500      -0.02959800
C       -0.46487000       2.41565000      10.08819000      -0.14545800       0.21394000      -0.01731700
C       -0.92980000       4.83129000      10.10519000       0.11324000      -0.17651300      -0.00738900
C        1.85958000       1.61041000      10.08826000       0.27515400       0.03627600      -0.02430800
C        1.39467000       4.02611000      10.10415000       0.05461400       0.19303200      -0.00838900
C        4.18405000       0.80523000      10.10495000      -0.18049400       0.00130400      -0.00924800
C        3.71912000       3.22088000      10.10534000      -0.02114600      -0.00865800      -0.00105800
C       -1.39467000       3.48929000      10.10502000      -0.10910100       0.14177300      -0.00649000
C        1.39471000       0.26841000      10.08832000       0.14638400      -0.19000000      -0.01153000
C        0.92977000       2.68406000      10.08790000       0.09073300       0.24161400      -0.01835300
C        0.46490000       5.09970000      10.10620000      -0.00624000      -0.00324300       0.00119700
C        3.25428000       1.87882000      10.10427000       0.18188200       0.02080500      -0.00331000
C        2.78935000       4.29447000      10.10341000      -0.05526200      -0.16548600      -0.00289100
C        5.57873000       1.07359000      10.08825000      -0.25567900      -0.06283400      -0.01404000
Li       0.46460000       1.34194000      11.86377000      -0.00005600      -0.00036200      -0.00801400
29
Lattice="6.508500099 0.0 0.0 -3.25425005 5.636526426 0.0 0.0 0.0 24.0" Properties=species:S:1:pos:R:3:forces:R:3 stress="-0.008062538069960084 -2.6588828876262677e-06 1.4935931338238637e-05 -2.6588828876262677e-06 -0.008048738093282756 -1.3231999346872506e-05 1.4935931338238637e-05 -1.3231999346872506e-05 0.0039045445544426713" free_energy=-262.05260784 energy=-262.05062592 pbc="T T T"
C        0.00000000       0.00000000      13.93048000      -0.06569500      -0.24737400      -0.01665900
C       -0.46487000       2.41565000      13.92571000      -0.17478600       0.17381200       0.00181600
C       -0.92980000       4.83129000      13.90391000       0.02509600      -0.08939200       0.00878400
C        1.85958000       1.61041000      13.92543000       0.24264700       0.06165300       0.00858800
C        1.39467000       4.02611000      13.90381000       0.02486700       0.07269900       0.00926300
C        4.18405000       0.80523000      13.90407000      -0.07054500       0.03132000       0.01095000
C        3.71912000       3.22088000      13.89573000      -0.02647200      -0.01054300       0.01972200
C       -2.32448000       4.56294000      13.90763000       0.05223000      -0.07535700       0.01136400
C        0.46490000       1.34206000      13.96568000      -0.00247000       0.00163200      -0.00303600
C       -0.00003000       3.75770000      13.90482000       0.00305600       0.14864800       0.02563800
C        2.78935000       0.53682000      13.90636000       0.13765400      -0.07161600       0.01904100
C        2.32448000       2.95247000      13.90555000       0.05709800       0.08416700       0.01778800
C        1.85954000       5.36812000      13.90830000      -0.10897700      -0.08488700       0.01037200
C        4.64892000       2.14723000      13.90582000      -0.10487400       0.01045700       0.01590100
C        0.00000000       0.00000000      10.08424000      -0.08763400      -0.24287200      -0.02652000
C       -0.46487000       2.41565000      10.08493000      -0.15062600       0.21287600      -0.00129200
C       -0.92980000       4.83129000      10.10497000       0.11284600      -0.17593200      -0.01162500
C        1.85958000       1.61041000      10.08491000       0.27232300       0.03755500      -0.00681000
C        1.39467000       4.02611000      10.10356000       0.06084000       0.19201800      -0.00372800
C        4.18405000       0.80523000      10.10467000      -0.17956200       0.00133900      -0.01374100
C        3.71912000       3.22088000      10.10572000      -0.02111900      -0.00865200      -0.00572700
C       -1.39467000       3.48929000      10.10477000      -0.10861200       0.14118400      -0.01211700
C        1.39471000       0.26841000      10.08516000       0.15066800      -0.19837200      -0.00772600
C        0.92977000       2.68406000      10.08453000       0.09537800       0.23857500      -0.01092800
C        0.46490000       5.09970000      10.10685000      -0.00622100      -0.00326100      -0.00767300
C        3.25428000       1.87882000      10.10415000       0.18104400       0.02086200      -0.01117700
C        2.78935000       4.29447000      10.10295000      -0.05483100      -0.16468300      -0.01039200
C        5.57873000       1.07359000      10.08483000      -0.25195300      -0.05617900      -0.00757900
Li       0.46462000       1.34193000      11.86043000      -0.00137100       0.00032500      -0.00249600
29
Lattice="6.508500099 0.0 0.0 -3.25425005 5.636526426 0.0 0.0 0.0 24.0" Properties=species:S:1:pos:R:3:forces:R:3 stress="-0.008048457225372091 6.678414764695085e-07 1.1010022098058067e-05 6.678414764695085e-07 -0.008037915316458474 -1.893049717880392e-05 1.1010022098058067e-05 -1.893049717880392e-05 0.0039317762587589" free_energy=-262.05270756 energy=-262.05073077 pbc="T T T"
C        0.00000000       0.00000000      13.92987000      -0.06573900      -0.24687700       0.01130700
C       -0.46487000       2.41565000      13.92572000      -0.17504300       0.17383700       0.00525200
C       -0.92980000       4.83129000      13.90411000       0.02528100      -0.09343500       0.00906100
C        1.85958000       1.61041000      13.92562000       0.24411500       0.06116700       0.00773800
C        1.39467000       4.02611000      13.90401000       0.02271700       0.07205500       0.01174000
C        4.18405000       0.80523000      13.90426000      -0.07073100       0.03114700       0.01393200
C        3.71912000       3.22088000      13.89628000      -0.02390800      -0.00788300       0.01495800
C       -2.32448000       4.56294000      13.90772000       0.05237400      -0.07579500       0.01074800
C        0.46490000       1.34206000      13.96549000      -0.00382100       0.00402500      -0.00170800
C       -0.00003000       3.75770000      13.90541000       0.00292400       0.14883800       0.01528100
C        2.78935000       0.53682000      13.90676000       0.13760600      -0.07176800       0.01756700
C        2.32448000       2.95247000      13.90594000       0.05736500       0.08411400       0.01625200
C        1.85954000       5.36812000      13.90840000      -0.10817200      -0.08441200       0.00531100
C        4.64892000       2.14723000      13.90613000      -0.10531100       0.01039900       0.01632200
C        0.00000000       0.00000000      10.08370000      -0.08765900      -0.24268200      -0.02254100
C       -0.46487000       2.41565000      10.08512000      -0.15052600       0.21260800      -0.00616500
C       -0.92980000       4.83129000      10.10463000       0.11256200      -0.17602700      -0.01199700
C        1.85958000       1.61041000      10.08498000       0.27185400       0.03747600      -0.01033900
C        1.39467000       4.02611000      10.10350000       0.06048500       0.19174300      -0.00732400
C        4.18405000       0.80523000      10.10428000      -0.17968200       0.00118500      -0.01329400