29
Lattice="6.508500099 0.0 0.0 -3.25425005 5.636526426 0.0 0.0 0.0 24.0" Properties=species:S:1:pos:R:3:forces:R:3 stress="-0.008391353253729866 1.7975546282543784e-05 -2.2469432853179729e-07 1.7975546282543784e-05 -0.00838170388062125 3.120754562941629e-07 -2.2469432853179729e-07 3.120754562941629e-07 0.00423853394927781" free_energy=-261.96493591 energy=-261.96240297 pbc="T T T"
C        0.00000000       0.00000000      14.00000000      -0.06539400      -0.26502200      -0.05552200
C       -0.46487000       2.41565000      14.00000000      -0.19952500       0.19061200      -0.05422100
C       -0.92980000       4.83129000      14.00000000       0.04569300      -0.09218300      -0.00416900
C        1.85958000       1.61041000      14.00000000       0.26466500       0.07197900      -0.05416800
C        1.39467000       4.02611000      14.00000000       0.04838700       0.07721700      -0.00416200
C        4.18405000       0.80523000      14.00000000      -0.10060900       0.01235100      -0.00415400
C        3.71912000       3.22088000      14.00000000      -0.00780900      -0.00436800      -0.02459100
C       -2.32448000       4.56294000      14.00000000       0.05727900      -0.10032800      -0.01914700
C        0.46490000       1.34206000      14.00000000      -0.00361900       0.00925100       0.76526300
C       -0.00003000       3.75770000      14.00000000      -0.01367600       0.17452700      -0.03002900
C        2.78935000       0.53682000      14.00000000       0.13927700      -0.08000900      -0.02887200
C        2.32448000       2.95247000      14.00000000       0.06820300       0.11472700      -0.01914000
C        1.85954000       5.36812000      14.00000000      -0.14416300      -0.10827900      -0.02887500
C        4.64892000       2.14723000      14.00000000      -0.08870000      -0.00151100      -0.01910900
C        0.00000000       0.00000000      10.00000000      -0.06149800      -0.16851000       0.04292500
C       -0.46487000       2.41565000      10.00000000      -0.10650500       0.14420800       0.04155700
C       -0.92980000       4.83129000      10.00000000       0.10196400      -0.13591800       0.03896900
C        1.85958000       1.61041000      10.00000000       0.18531200       0.03361300       0.04162300
C        1.39467000       4.02611000      10.00000000       0.05835200       0.15729000       0.03896200
C        4.18405000       0.80523000      10.00000000      -0.16498800      -0.01842300       0.03897700
C        3.71912000       3.22088000      10.00000000       0.00219900      -0.00436700       0.00006500
C       -1.39467000       3.48929000      10.00000000      -0.11871200       0.14118800       0.03615600
C        1.39471000       0.26841000      10.00000000       0.11699900      -0.13225500       0.04108900
C        0.92977000       2.68406000      10.00000000       0.05845800       0.14362100       0.04104900
C        0.46490000       5.09970000      10.00000000       0.01983600       0.00737100      -0.00205600
C        3.25428000       1.87882000      10.00000000       0.15774400       0.01965800       0.03731300
C        2.78935000       4.29447000      10.00000000      -0.05923800      -0.15871400       0.03615300
C        5.57873000       1.07359000      10.00000000      -0.18958700      -0.03021900       0.04108500
Li       0.46490000       1.34206000      12.00000000      -0.00034600       0.00249300      -0.89296900
29
Lattice="6.508500099 0.0 0.0 -3.25425005 5.636526426 0.0 0.0 0.0 24.0" Properties=species:S:1:pos:R:3:forces:R:3 stress="-0.008387190167142901 1.9055327361321586e-05 -2.7899545792698165e-06 1.9055327361321586e-05 -0.008385773344571325 2.671365905878034e-06 -2.7899545792698165e-06 2.671365905878034e-06 0.004863614846725893" free_energy=-262.00851315 energy=-262.00603328 pbc="T T T"
C        0.00000000       0.00000000      13.99732000      -0.05852600      -0.24173800       0.16149100
C       -0.46487000       2.41565000      13.99738000      -0.18162800       0.17444900       0.17168100
C       -0.92980000       4.83129000      13.99980000       0.04379400      -0.08096600      -0.02340100
C        1.85958000       1.61041000      13.99739000       0.24365900       0.06835900       0.17216700
C        1.39467000       4.02611000      13.99980000       0.03986400       0.07039200      -0.02339800
C        4.18405000       0.80523000      13.99980000      -0.09017400       0.00875700      -0.02303000
C        3.71912000       3.22088000      13.99881000      -0.00733100      -0.00535100      -0.07213800
C       -2.32448000       4.56294000      13.99908000       0.06175900      -0.10167500      -0.04255000
C        0.46490000       1.34206000      14.03692000      -0.00476800       0.00227000      -0.03942200
C       -0.00003000       3.75770000      13.99855000      -0.00300600       0.17270000      -0.02517600
C        2.78935000       0.53682000      13.99861000       0.13284500      -0.08929300      -0.03304800
C        2.32448000       2.95247000      13.99908000       0.06739700       0.11962500      -0.04215600
C        1.85954000       5.36812000      13.99861000      -0.14763100      -0.09778600      -0.03756100
C        4.64892000       2.14723000      13.99908000      -0.09231800      -0.00430100      -0.04216500
C        0.00000000       0.00000000      10.00207000      -0.06576500      -0.17958800       0.03385400
C       -0.46487000       2.41565000      10.00200000      -0.11460700       0.15510500       0.02957300
C       -0.92980000       4.83129000      10.00188000       0.10713000      -0.14070500       0.02796700
C        1.85958000       1.61041000      10.00201000       0.19735100       0.03445000       0.02997800
C        1.39467000       4.02611000      10.00188000       0.05977600       0.16231200       0.02794100
C        4.18405000       0.80523000      10.00188000      -0.16995500      -0.01837600       0.02831200
C        3.71912000       3.22088000      10.00000000       0.00222500      -0.00410800       0.02529500
C       -1.39467000       3.48929000      10.00174000      -0.12321600       0.14489600       0.02817900
C        1.39471000       0.26841000      10.00198000       0.12576900      -0.14082600       0.03301500
C        0.92977000       2.68406000      10.00198000       0.06401100       0.15496400       0.03065200
C        0.46490000       5.09970000       9.99990000       0.01986100       0.00762400       0.02661600
C        3.25428000       1.87882000      10.00180000       0.16366800       0.02072100       0.02029600
C        2.78935000       4.29447000      10.00174000      -0.06179200      -0.16497200       0.03057400
C        5.57873000       1.07359000      10.00198000      -0.20559100      -0.02614700       0.03182900
Li       0.46489000       1.34218000      11.95692000      -0.00279900      -0.00079200      -0.50537700
29
Lattice="6.508500099 0.0 0.0 -3.25425005 5.636526426 0.0 0.0 0.0 24.0" Properties=species:S:1:pos:R:3:forces:R:3 stress="-0.008413454437544618 2.1408376301779575e-05 -8.500935429452998e-06 2.1408376301779575e-05 -0.008407194203891358 -8.151410918403535e-06 -8.500935429452998e-06 -8.151410918403535e-06 0.00499326347428874" free_energy=-262.02323014 energy=-262.02080384 pbc="T T T"
C        0.00000000       0.00000000      14.00548000      -0.06317300      -0.24667200       0.01142100
C       -0.46487000       2.41565000      14.00606000      -0.18423300       0.18421700       0.01986000
C       -0.92980000       4.83129000      13.99862000       0.03778200      -0.07744700      -0.03991100
C        1.85958000       1.61041000      14.00609000       0.25233100       0.06847000       0.01828900
C        1.39467000       4.02611000      13.99862000       0.03849400       0.06534400      -0.04125300
C        4.18405000       0.80523000      13.99864000      -0.08541600       0.01095800      -0.04347800
C        3.71912000       3.22088000      13.99517000      -0.00739600      -0.00711800      -0.06772500
C       -2.32448000       4.56294000      13.99693000       0.06281900      -0.10322200       0.01344500
C        0.46490000       1.34206000      14.03493000      -0.00487100       0.00208800       0.06028300
C       -0.00003000       3.75770000      13.99728000      -0.00279700       0.16294200       0.02144900
C        2.78935000       0.53682000      13.99694000       0.12736500      -0.07887700       0.02058600
C        2.32448000       2.95247000      13.99695000       0.06675400       0.11059900       0.01893400
C        1.85954000       5.36812000      13.99671000      -0.14532000      -0.09245200       0.01745600
C        4.64892000       2.14723000      13.99695000      -0.09381100      -0.00354300       0.01891800
C        0.00000000       0.00000000      10.00378000      -0.06859000      -0.18731100       0.02961900
C       -0.46487000       2.41565000      10.00350000      -0.11978400       0.16302800       0.01966500
C       -0.92980000       4.83129000      10.00329000       0.11076800      -0.14450500       0.02663300
C        1.85958000       1.61041000      10.00352000       0.20690900       0.03663600       0.01796400
C        1.39467000       4.02611000      10.00329000       0.05959000       0.16489000       0.02656500
C        4.18405000       0.80523000      10.00331000      -0.17511900      -0.01796700       0.02407500
C        3.71912000       3.22088000      10.00128000       0.00098200      -0.00347200       0.02432400
C       -1.39467000       3.48929000      10.00317000      -0.11888300       0.14776800       0.02872800
C        1.39471000       0.26841000      10.00365000       0.13560700      -0.14748100       0.02521000
C        0.92977000       2.68406000      10.00353000       0.06172400       0.16263100       0.02034000
C        0.46490000       5.09970000      10.00125000       0.01913700       0.00898200       0.02623700
C        3.25428000       1.87882000      10.00283000       0.16707600       0.02121700       0.02826300
C        2.78935000       4.29447000      10.00329000      -0.06590900      -0.17232800       0.03104500
C        5.57873000       1.07359000      10.00359000      -0.21196200      -0.02817300       0.02573700
Li       0.46474000       1.34214000      11.93138000      -0.00007200       0.00079800      -0.38267900
29
Lattice="6.508500099 0.0 0.0 -3.25425005 5.636526426 0.0 0.0 0.0 24.0" Properties=species:S:1:pos:R:3:forces:R:3 stress="-0.00842947639147076 2.256305549006798e-05 -9.930241019280265e-06 2.256305549006798e-05 -0.00841658767512581 -1.7214082169186025e-05 -9.930241019280265e-06 -1.7214082169186025e-05 0.005120627709511514" free_energy=-262.03539837 energy=-262.03310779 pbc="T T T"
C        0.00000000       0.00000000      14.00899000      -0.06467600      -0.24434000       0.00414300
C       -0.46487000       2.41565000      14.01043000      -0.18546700       0.19124800      -0.00730900
C       -0.92980000       4.83129000      13.99494000       0.03521800      -0.07194800       0.02645600
C        1.85958000       1.61041000      14.01034000       0.25594000       0.07510800      -0.01007600
C        1.39467000       4.02611000      13.99483000       0.03137200       0.05565400       0.02901900
C        4.18405000       0.80523000      13.99467000      -0.08070300       0.01374900       0.02788400
C        3.71912000       3.22088000      13.98841000      -0.00008300      -0.01676100       0.03963000
C       -2.32448000       4.56294000      13.99736000       0.06221700      -0.10036400      -0.03227300
C        0.46490000       1.34206000      14.03929000      -0.01029500       0.00422400      -0.04327200
C       -0.00003000       3.75770000      13.99866000       0.00010800       0.15333800      -0.02139800
C        2.78935000       0.53682000      13.99812000       0.11492200      -0.08193000      -0.02598100
C        2.32448000       2.95247000      13.99784000       0.06639700       0.10950100      -0.03043700
C        1.85954000       5.36812000      13.99756000      -0.13792200      -0.08537400      -0.02732900
C        4.64892000       2.14723000      13.99784000      -0.08970800      -0.00572600      -0.03065600
C        0.00000000       0.00000000      10.00677000      -0.07298900      -0.20026800      -0.00333400
C       -0.46487000       2.41565000      10.00560000      -0.12830000       0.17602900       0.01227500
C       -0.92980000       4.83129000      10.00594000       0.11679900      -0.14979400       0.03211400
C        1.85958000       1.61041000      10.00549000       0.22325300       0.04058800       0.01099800
C        1.39467000       4.02611000      10.00594000       0.05996000       0.16852300       0.03090100
C        4.18405000       0.80523000      10.00575000      -0.18276300      -0.01743600       0.03130500
C        3.71912000       3.22088000      10.00370000       0.00119600      -0.00509300       0.02878900
C       -1.39467000       3.48929000      10.00600000      -0.12629500       0.15686600       0.02444500
C        1.39471000       0.26841000      10.00626000       0.14547300      -0.16021500       0.00979000
C        0.92977000       2.68406000      10.00570000       0.06673400       0.17409300       0.00698100
C        0.46490000       5.09970000      10.00384000       0.02195600       0.00445100       0.02433200
C        3.25428000       1.87882000      10.00549000       0.17255700       0.02199500       0.02674700
C        2.78935000       4.29447000      10.00635000      -0.06965700      -0.17687400       0.03004400
C        5.57873000       1.07359000      10.00623000      -0.22336700      -0.02860900       0.00962100
Li       0.46469000       1.34219000      11.89166000      -0.00187800      -0.00063400      -0.17340900
29
Lattice="6.508500099 0.0 0.0 -3.25425005 5.636526426 0.0 0.0 0.0 24.0" Properties=species:S:1:pos:R:3:forces:R:3 stress="-0.008453606065751424 2.336821016730692e-05 -6.179094034624427e-06 2.336821016730692e-05 -0.0084435447530405 -1.5297938867539864e-05 -6.179094034624427e-06 -1.5297938867539864e-05 0.005118355800189691" free_energy=-262.03844115 energy=-262.03622188 pbc="T T T"
C        0.00000000       0.00000000      14.01029000      -0.06645100      -0.24527100      -0.03020700
C       -0.46487000       2.41565000      14.01142000      -0.18650300       0.19171600      -0.03666100
C       -0.92980000       4.83129000      13.99524000       0.03295700      -0.06955200       0.00499500
C        1.85958000       1.61041000      14.01117000       0.25558900       0.07437100      -0.03913300
C        1.39467000       4.02611000      13.99522000       0.03209300       0.05411400       0.00487500
C        4.18405000       0.80523000      13.99497000      -0.07584100       0.01278500       0.00369600
C        3.71912000       3.22088000      13.98851000      -0.00060200      -0.01696000       0.01490800
C       -2.32448000       4.56294000      13.99593000       0.06109400      -0.09839100      -0.00253800
C        0.46490000       1.34206000      14.03827000      -0.00748100       0.00058600      -0.05104700
C       -0.00003000       3.75770000      13.99796000       0.00037800       0.14882500      -0.00113500
C        2.78935000       0.53682000      13.99715000       0.11352200      -0.07468500      -0.00086600
C        2.32448000       2.95247000      13.99660000       0.06524600       0.11176000      -0.00066900
C        1.85954000       5.36812000      13.99645000      -0.13474800      -0.08274000      -0.00009400
C        4.64892000       2.14723000      13.99659000      -0.08480200      -0.00890200      -0.00051900
C        0.00000000       0.00000000      10.00738000      -0.07572100      -0.20679000       0.00030700
C       -0.46487000       2.41565000      10.00670000      -0.13856800       0.18765900       0.00352900
C       -0.92980000       4.83129000      10.00807000       0.12633100      -0.15052300       0.02703100
C        1.85958000       1.61041000      10.00650000       0.22975400       0.04431000       0.00645300
C        1.39467000       4.02611000      10.00800000       0.05756300       0.16256300       0.02693300
C        4.18405000       0.80523000      10.00779000      -0.19087000      -0.01894800       0.02914800
C        3.71912000       3.22088000      10.00561000       0.00096300      -0.00827400       0.03262800
C       -1.39467000       3.48929000      10.00781000      -0.13013300       0.15645000       0.02144600
C        1.39471000       0.26841000      10.00737000       0.14888400      -0.16461200       0.00248800
C        0.92977000       2.68406000      10.00658000       0.07211800       0.18137900       0.00308800
C        0.46490000       5.09970000      10.00560000       0.02262500       0.00466700       0.03221900
C        3.25428000       1.87882000      10.00736000       0.17448000       0.02215200       0.01820600
C        2.78935000       4.29447000      10.00847000      -0.07104600      -0.17748400       0.02430400
C        5.57873000       1.07359000      10.00733000      -0.23100100      -0.03069600       0.00226400
Li       0.46459000       1.34217000      11.87365000       0.00017300       0.00049100      -0.09564800
29
Lattice="6.508500099 0.0 0.0 -3.25425005 5.636526426 0.0 0.0 0.0 24.0" Properties=species:S:1:pos:R:3:forces:R:3 stress="-0.008489881716791058 1.553511621432343e-05 -1.1428203209492246e-05 1.553511621432343e-05 -0.008478909143747755 -2.0584497097162988e-05 -1.1428203209492246e-05 -2.0584497097162988e-05 0.005067381395158603" free_energy=-262.04022976 energy=-262.03805302 pbc="T T T"
C        0.00000000       0.00000000      14.00866000      -0.06708100      -0.24553800      -0.03465100
C       -0.46487000       2.41565000      14.00935000      -0.18604100       0.19215500      -0.02839600
C       -0.92980000       4.83129000      13.99532000       0.03194800      -0.06814400       0.00405100
C        1.85958000       1.61041000      14.00889000       0.25579100       0.07379900      -0.02874000
C        1.39467000       4.02611000      13.99529000       0.03138400       0.05260200       0.00534700
C        4.18405000       0.80523000      13.99493000      -0.07426100       0.01292700       0.00587000
C        3.71912000       3.22088000      13.98901000      -0.00144600      -0.01760900       0.01220400
C       -2.32448000       4.56294000      13.99555000       0.06091500      -0.09742900      -0.00082800
C        0.46490000       1.34206000      14.03427000      -0.00384300      -0.00084400      -0.05305200
C       -0.00003000       3.75770000      13.99786000       0.00058800       0.14701400      -0.00545000
C        2.78935000       0.53682000      13.99702000       0.11185500      -0.07401200      -0.00624700
C        2.32448000       2.95247000      13.99642000       0.06463400       0.11147400      -0.00531100
C        1.85954000       5.36812000      13.99633000      -0.13315500      -0.08162000      -0.00139700
C        4.64892000       2.14723000      13.99642000      -0.08416700      -0.00927900      -0.00469100
C        0.00000000       0.00000000      10.00775000      -0.07745200      -0.21159900       0.00295700
C       -0.46487000       2.41565000      10.00727000      -0.14182900       0.19162300       0.00158100
C       -0.92980000       4.83129000      10.01063000       0.12866800      -0.15252800       0.01127800
C        1.85958000       1.61041000      10.00730000       0.23639500       0.04744300      -0.00032900
C        1.39467000       4.02611000      10.01056000       0.05745600       0.16331500       0.01288900
C        4.18405000       0.80523000      10.01052000      -0.19514000      -0.01856400       0.01020400
C        3.71912000       3.22088000      10.00860000       0.00232900      -0.01449200       0.01851800
C       -1.39467000       3.48929000      10.00993000      -0.13302300       0.15949700       0.02775000
C        1.39471000       0.26841000      10.00792000       0.15195200      -0.16854000       0.00471800
C        0.92977000       2.68406000      10.00712000       0.07381400       0.18616100       0.00622300
C        0.46490000       5.09970000      10.00856000       0.02362600       0.00831600       0.02774800
C        3.25428000       1.87882000      10.00917000       0.17650700       0.02231800       0.03209300
C        2.78935000       4.29447000      10.01086000      -0.07293900      -0.17800000       0.02368500
C        5.57873000       1.07359000      10.00786000      -0.23599000      -0.03151000       0.00436400
Li       0.46459000       1.34221000      11.86063000      -0.00149600       0.00106200      -0.04239000
29
Lattice="6.508500099 0.0 0.0 -3.25425005 5.636526426 0.0 0.0 0.0 24.0" Properties=species:S:1:pos:R:3:forces:R:3 stress="-0.008506477889556783 1.0779086260400388e-05 -5.417629921266668e-06 1.0779086260400388e-05 -0.008485263000037904 -1.8474867012614446e-05 -5.417629921266668e-06 -1.8474867012614446e-05 0.005013954077041042" free_energy=-262.04146488 energy=-262.03931798 pbc="T T T"
C        0.00000000       0.00000000      14.00486000      -0.06788400      -0.24583300      -0.00391200
C       -0.46487000       2.41565000      14.00603000      -0.18220400       0.18840600      -0.01581000
C       -0.92980000       4.83129000      13.99565000       0.03115900      -0.06689500      -0.00276900
C        1.85958000       1.61041000      14.00547000       0.25398300       0.06477800      -0.01472900
C        1.39467000       4.02611000      13.99572000       0.03078500       0.05247800      -0.00203600
C        4.18405000       0.80523000      13.99538000      -0.07362300       0.01348700      -0.00244400
C        3.71912000       3.22088000      13.99021000      -0.00160900      -0.01698200       0.00449700
C       -2.32448000       4.56294000      13.99545000       0.06067900      -0.09701600      -0.01015300
C        0.46490000       1.34206000      14.02795000      -0.00049200       0.00587300      -0.03952200
C       -0.00003000       3.75770000      13.99736000       0.00009100       0.14673200      -0.00647800
C        2.78935000       0.53682000      13.99646000       0.10539800      -0.07409100      -0.00502400
C        2.32448000       2.95247000      13.99595000       0.06424500       0.11177600      -0.00747700
C        1.85954000       5.36812000      13.99625000      -0.13289500      -0.08100500      -0.00961800
C        4.64892000       2.14723000      13.99602000      -0.08429500      -0.00877900      -0.00699900
C        0.00000000       0.00000000      10.00816000      -0.07875400      -0.21374300       0.00708500
C       -0.46487000       2.41565000      10.00756000      -0.14395900       0.19432900       0.01057800
C       -0.92980000       4.83129000      10.01244000       0.12855000      -0.15160700       0.02598700
C        1.85958000       1.61041000      10.00750000       0.23887900       0.04828800       0.01132700
C        1.39467000       4.02611000      10.01252000       0.05847600       0.16439000       0.02491600
C        4.18405000       0.80523000      10.01229000      -0.19589600      -0.01917600       0.02660600
C        3.71912000       3.22088000      10.01126000       0.00553100      -0.01319000       0.02555400
C       -1.39467000       3.48929000      10.01316000      -0.12565200       0.16368300       0.00353200
C        1.39471000       0.26841000      10.00849000       0.15241800      -0.17202200      -0.00382700
C        0.92977000       2.68406000      10.00786000       0.07405600       0.18758400      -0.00633800
C        0.46490000       5.09970000      10.01210000       0.02129300       0.00321500       0.00523500
C        3.25428000       1.87882000      10.01270000       0.17667300       0.02281800       0.01140800
C        2.78935000       4.29447000      10.01378000      -0.07428400      -0.17600600       0.00637500
C        5.57873000       1.07359000      10.00839000      -0.23907600      -0.03145900      -0.00188200
Li       0.46445000       1.34233000      11.85305000      -0.00159500      -0.00003500      -0.02408000
29
Lattice="6.508500099 0.0 0.0 -3.25425005 5.636526426 0.0 0.0 0.0 24.0" Properties=species:S:1:pos:R:3:forces:R:3 stress="-0.008518736213480016 9.973931583161448e-06 1.3856150259460834e-06 9.973931583161448e-06 -0.008504137323634576 -2.5839847781156685e-06 1.3856150259460834e-06 -2.5839847781156685e-06 0.004959066245788024" free_energy=-262.04222971 energy=-262.04011896 pbc="T T T"
C        0.00000000       0.00000000      14.00211000      -0.06888900      -0.24736600      -0.01048000
C       -0.46487000       2.41565000      14.00287000      -0.18281000       0.18691200      -0.01666800
C       -0.92980000       4.83129000      13.99565000       0.03041400      -0.06600500      -0.00691800
C        1.85958000       1.61041000      14.00228000       0.25205200       0.06224200      -0.01369600
C        1.39467000       4.02611000      13.99582000       0.03044500       0.05172700      -0.00728100
C        4.18405000       0.80523000      13.99544000      -0.07284800       0.01392200      -0.00663700
C        3.71912000       3.22088000      13.99115000      -0.00113800      -0.01631000      -0.00642700
C       -2.32448000       4.56294000      13.99486000       0.05935100      -0.09631200      -0.00550800
C        0.46490000       1.34206000      14.02141000       0.00114700       0.00873600      -0.00795400
C       -0.00003000       3.75770000      13.99676000      -0.00017800       0.14584200      -0.00768300
C        2.78935000       0.53682000      13.99591000       0.10446900      -0.07318200      -0.00662000
C        2.32448000       2.95247000      13.99532000       0.06386700       0.11162400      -0.00659500
C        1.85954000       5.36812000      13.99573000      -0.13186200      -0.08047200      -0.00838000
C        4.64892000       2.14723000      13.99545000      -0.08398000      -0.00874200      -0.00696700
C        0.00000000       0.00000000      10.00884000      -0.07982800      -0.21664700       0.00376400
C       -0.46487000       2.41565000      10.00837000      -0.14343900       0.19856700      -0.00041300
C       -0.92980000       4.83129000      10.01531000       0.13092500      -0.15302600       0.01425200
C        1.85958000       1.61041000      10.00834000       0.24486300       0.04847800       0.00266700
C        1.39467000       4.02611000      10.01542000       0.05655600       0.16366000       0.01276700
C        4.18405000       0.80523000      10.01520000      -0.19775800      -0.01982800       0.01736200
C        3.71912000       3.22088000      10.01469000       0.00719300      -0.01498300       0.02000700
C       -1.39467000       3.48929000      10.01559000      -0.13172900       0.16469600       0.00638000
C        1.39471000       0.26841000      10.00870000       0.15433700      -0.17453700       0.00747700
C        0.92977000       2.68406000      10.00804000       0.07521500       0.19093000       0.00606300
C        0.46490000       5.09970000      10.01499000       0.02486300       0.00506700       0.00449700
C        3.25428000       1.87882000      10.01563000       0.17743800       0.02316900       0.00358300
C        2.78935000       4.29447000      10.01622000      -0.07531300      -0.17608500       0.01390500
C        5.57873000       1.07359000      10.00868000      -0.24031100      -0.03186500       0.00715900
Li       0.46430000       1.34240000      11.84522000      -0.00305300      -0.00021300      -0.00165400
29
Lattice="6.508500099 0.0 0.0 -3.25425005 5.636526426 0.0 0.0 0.0 24.0" Properties=species:S:1:pos:R:3:forces:R:3 stress="-0.008523061579304254 8.438520338194166e-06 -2.3093583765768058e-06 8.438520338194166e-06 -0.008512451013790253 -4.568784680146545e-06 -2.3093583765768058e-06 -4.568784680146545e-06 0.004928027220905008" free_energy=-262.04246479 energy=-262.04037633 pbc="T T T"
C        0.00000000       0.00000000      14.00081000      -0.06912000      -0.24776100      -0.01108600
C       -0.46487000       2.41565000      14.00129000      -0.18287000       0.18550900      -0.00875800
C       -0.92980000       4.83129000      13.99539000       0.03024500      -0.06564200      -0.00995200
C        1.85958000       1.61041000      14.00082000       0.25252100       0.06257200      -0.00881500
C        1.39467000       4.02611000      13.99556000       0.03030500       0.05131100      -0.01118000
C        4.18405000       0.80523000      13.99521000      -0.07237200       0.01396800      -0.01078800
C        3.71912000       3.22088000      13.99113000      -0.00109300      -0.01631300      -0.00995700
C       -2.32448000       4.56294000      13.99445000       0.05949900      -0.09628700      -0.00773100
C        0.46490000       1.34206000      14.01930000       0.00179300       0.00777900      -0.00851200
C       -0.00003000       3.75770000      13.99621000       0.00002000       0.14543800      -0.01002500
C        2.78935000       0.53682000      13.99539000       0.10406700      -0.07300900      -0.00813200
C        2.32448000       2.95247000      13.99480000       0.06408600       0.11270200      -0.00635100
C        1.85954000       5.36812000      13.99520000      -0.13093300      -0.07925400      -0.00669000
C        4.64892000       2.14723000      13.99493000      -0.08317600      -0.00952300      -0.00728200
C        0.00000000       0.00000000      10.00917000      -0.08023000      -0.21795500       0.00843500
C       -0.46487000       2.41565000      10.00850000      -0.14417500       0.19964800       0.00355300
C       -0.92980000       4.83129000      10.01665000       0.13116100      -0.15321200       0.01192700
C        1.85958000       1.61041000      10.00862000       0.24626100       0.04863000       0.00539100
C        1.39467000       4.02611000      10.01671000       0.05668800       0.16403200       0.01265800
C        4.18405000       0.80523000      10.01669000      -0.19797700      -0.01993100       0.01297600