29
Lattice="6.508500099 0.0 0.0 -3.25425005 5.636526426 0.0 0.0 0.0 24.0" Properties=species:S:1:pos:R:3:forces:R:3 stress="-0.007974407961102612 1.6608655783975352e-05 -1.2545433343025348e-06 1.6608655783975352e-05 -0.007957019116677901 1.6852074639884797e-06 -1.2545433343025348e-06 1.6852074639884797e-06 -0.016707053175344898" free_energy=-260.11595008 energy=-260.11374276 pbc="T T T"
C        0.00000000       0.00000000      13.55000000      -0.09361600      -0.35902900       0.37025400
C       -0.46487000       2.41565000      13.55000000      -0.25700400       0.25880100       0.36211900
C       -0.92980000       4.83129000      13.55000000       0.04558700      -0.12396000       0.10976000
C        1.85958000       1.61041000      13.55000000       0.35946600       0.09363000       0.36088700
C        1.39467000       4.02611000      13.55000000       0.06382300       0.10563600       0.10978700
C        4.18405000       0.80523000      13.55000000      -0.12485000       0.01807600       0.10850500
C        3.71912000       3.22088000      13.55000000      -0.00807300      -0.00382300       0.10019600
C       -2.32448000       4.56294000      13.55000000       0.07128500      -0.07575500       0.13847300
C        0.46490000       1.34206000      13.55000000      -0.01562200      -0.00111900       6.33607700
C       -0.00003000       3.75770000      13.55000000       0.00858400       0.18772000       0.13048400
C        2.78935000       0.53682000      13.55000000       0.13729500      -0.09882800       0.13531800
C        2.32448000       2.95247000      13.55000000       0.05940200       0.12257200       0.14474000
C        1.85954000       5.36812000      13.55000000      -0.15234400      -0.10141600       0.12911700
C        4.64892000       2.14723000      13.55000000      -0.09353800      -0.02685500       0.14468400
C        0.00000000       0.00000000      10.45000000      -0.13126200      -0.37118200      -0.41384800
C       -0.46487000       2.41565000      10.45000000      -0.24648900       0.30493800      -0.40445500
C       -0.92980000       4.83129000      10.45000000       0.11823600      -0.16574200      -0.06325500
C        1.85958000       1.61041000      10.45000000       0.39783700       0.06424500      -0.40570600
C        1.39467000       4.02611000      10.45000000       0.07616100       0.18721700      -0.06325300
C        4.18405000       0.80523000      10.45000000      -0.19173800      -0.01158500      -0.06450900
C        3.71912000       3.22088000      10.45000000      -0.00743900      -0.00162300      -0.11225800
C       -1.39467000       3.48929000      10.45000000      -0.11622900       0.17086700      -0.09174500
C        1.39471000       0.26841000      10.45000000       0.23897500      -0.28077300      -0.39738800
C        0.92977000       2.68406000      10.45000000       0.11567000       0.33952800      -0.40355100
C        0.46490000       5.09970000      10.45000000       0.02249400      -0.00016800      -0.13776000
C        3.25428000       1.87882000      10.45000000       0.17978300       0.00979900      -0.08686900
C        2.78935000       4.29447000      10.45000000      -0.06668900      -0.16323100      -0.08549000
C        5.57873000       1.07359000      10.45000000      -0.38824200      -0.08692300      -0.39745000
Li       0.46490000       1.34206000      12.00000000      -0.00146500       0.00898200      -5.55286400
29
Lattice="6.508500099 0.0 0.0 -3.25425005 5.636526426 0.0 0.0 0.0 24.0" Properties=species:S:1:pos:R:3:forces:R:3 stress="-0.008719837637515975 2.90417419627348e-05 1.4979621902119818e-06 2.90417419627348e-05 -0.008734311697178898 -4.275433751230032e-06 1.4979621902119818e-06 -4.275433751230032e-06 -0.006512471761565227" free_energy=-260.46285481 energy=-260.46111877 pbc="T T T"
C        0.00000000       0.00000000      13.56786000       0.05781000       0.10647400       1.70931700
C       -0.46487000       2.41565000      13.56747000       0.06525200      -0.09618700       1.72863700
C       -0.92980000       4.83129000      13.55530000       0.04656000      -0.11350000       0.08974800
C        1.85958000       1.61041000      13.56741000      -0.11126900      -0.00034400       1.73144400
C        1.39467000       4.02611000      13.55530000       0.04515600       0.09219900       0.08962700
C        4.18405000       0.80523000      13.55523000      -0.11589900       0.01898000       0.08979900
C        3.71912000       3.22088000      13.55483000      -0.01057700      -0.01346900      -0.30443400
C       -2.32448000       4.56294000      13.55668000       0.04039900      -0.07853300       0.07099200
C        0.46490000       1.34206000      13.85567000      -0.01497100       0.00243700      -3.42381800
C       -0.00003000       3.75770000      13.55629000      -0.04596500       0.15653000       0.05886200
C        2.78935000       0.53682000      13.55653000       0.13815700      -0.03664200       0.05389500
C        2.32448000       2.95247000      13.55698000       0.07690700       0.09666900       0.07129600
C        1.85954000       5.36812000      13.55623000      -0.09829500      -0.13335100       0.05374800
C        4.64892000       2.14723000      13.55698000      -0.08092700       0.00018900       0.07123900
C        0.00000000       0.00000000      10.43003000      -0.26514700      -0.74390600      -0.67624700
C       -0.46487000       2.41565000      10.43049000      -0.50376800       0.62062800      -0.69703300
C       -0.92980000       4.83129000      10.44695000       0.13598600      -0.17999900      -0.13321900
C        1.85958000       1.61041000      10.43043000       0.79575200       0.14238700      -0.69362100
C        1.39467000       4.02611000      10.44695000       0.07413000       0.20281200      -0.13332600
C        4.18405000       0.80523000      10.44689000      -0.21024600      -0.01747500      -0.13296400
C        3.71912000       3.22088000      10.44458000      -0.00930700      -0.00893000      -0.07896200
C       -1.39467000       3.48929000      10.44557000      -0.12863000       0.17726500      -0.13305600
C        1.39471000       0.26841000      10.43083000       0.50293200      -0.58643800      -0.69307900
C        0.92977000       2.68406000      10.43053000       0.24056500       0.70207000      -0.70144700
C        0.46490000       5.09970000      10.44335000       0.02240300      -0.00096700      -0.07015100
C        3.25428000       1.87882000      10.44581000       0.19176000       0.01654400      -0.13129000
C        2.78935000       4.29447000      10.44588000      -0.06654600      -0.17762500      -0.13274200
C        5.57873000       1.07359000      10.43083000      -0.77141600      -0.14168200      -0.69406300
Li       0.46483000       1.34249000      11.73212000      -0.00080700      -0.00613500       3.01084700
29
Lattice="6.508500099 0.0 0.0 -3.25425005 5.636526426 0.0 0.0 0.0 24.0" Properties=species:S:1:pos:R:3:forces:R:3 stress="-0.008281845976116245 4.163086586964134e-06 -1.1546791882884028e-05 4.163086586964134e-06 -0.008287968896568736 -2.4341885590944706e-05 -1.1546791882884028e-05 -2.4341885590944706e-05 -0.00757856521082997" free_energy=-261.08997073 energy=-261.087489 pbc="T T T"
C        0.00000000       0.00000000      13.61847000      -0.06260700      -0.23296000       0.43665100
C       -0.46487000       2.41565000      13.61865000      -0.17074600       0.18293900       0.41669300
C       -0.92980000       4.83129000      13.55795000       0.03763500      -0.10117700       0.03104000
C        1.85958000       1.61041000      13.61867000       0.24601700       0.06876200       0.41803000
C        1.39467000       4.02611000      13.55795000       0.04315400       0.06628500       0.03102600
C        4.18405000       0.80523000      13.55789000      -0.10594600       0.02499000       0.03211400
C        3.71912000       3.22088000      13.54582000      -0.00664800      -0.00384800      -0.07404000
C       -2.32448000       4.56294000      13.55878000       0.04507800      -0.04336900       0.31496300
C        0.46490000       1.34206000      13.75431000      -0.01721200      -0.00246200      -0.36307300
C       -0.00003000       3.75770000      13.55804000       0.00183700       0.11408800       0.30910100
C        2.78935000       0.53682000      13.55812000       0.07670300      -0.05749400       0.31666500
C        2.32448000       2.95247000      13.55909000       0.03839600       0.07892600       0.32286200
C        1.85954000       5.36812000      13.55782000      -0.09085300      -0.06936900       0.30841700
C        4.64892000       2.14723000      13.55909000      -0.04796100      -0.02304100       0.32251300
C        0.00000000       0.00000000      10.41001000      -0.20067900      -0.55597700      -0.46599900
C       -0.46487000       2.41565000      10.40985000      -0.37936800       0.47027400      -0.47742200
C       -0.92980000       4.83129000      10.44300000       0.13752300      -0.17929800      -0.17866600
C        1.85958000       1.61041000      10.40989000       0.59637800       0.11387100      -0.47293200
C        1.39467000       4.02611000      10.44300000       0.07005400       0.19013100      -0.18010200
C        4.18405000       0.80523000      10.44295000      -0.21464100      -0.01349800      -0.17698300
C        3.71912000       3.22088000      10.44225000      -0.00381400      -0.01352600      -0.07586800
C       -1.39467000       3.48929000      10.44163000      -0.12081700       0.17185200      -0.16680200
C        1.39471000       0.26841000      10.41031000       0.37855500      -0.43465200      -0.45527000
C        0.92977000       2.68406000      10.40977000       0.18428700       0.50912200      -0.45419800
C        0.46490000       5.09970000      10.44128000       0.02129600      -0.00077300      -0.06921300
C        3.25428000       1.87882000      10.44192000       0.18350500       0.01161700      -0.16333500
C        2.78935000       4.29447000      10.44195000      -0.07062000      -0.17191600      -0.16114900
C        5.57873000       1.07359000      10.41028000      -0.57268700      -0.09951100      -0.45566600
Li       0.46481000       1.34231000      11.82125000       0.00418400       0.00001400       1.13064600
29
Lattice="6.508500099 0.0 0.0 -3.25425005 5.636526426 0.0 0.0 0.0 24.0" Properties=species:S:1:pos:R:3:forces:R:3 stress="-0.007963616391823958 -3.4141054918581424e-06 -1.0360905148966209e-05 -3.4141054918581424e-06 -0.007972622889492608 -1.536659546792458e-05 -1.0360905148966209e-05 -1.536659546792458e-05 -0.007244881649941999" free_energy=-261.22136492 energy=-261.21875244 pbc="T T T"
C        0.00000000       0.00000000      13.63365000      -0.06969200      -0.26272200       0.37167600
C       -0.46487000       2.41565000      13.63267000      -0.18945300       0.20058100       0.37436300
C       -0.92980000       4.83129000      13.55918000       0.03921800      -0.10538800       0.26161700
C        1.85958000       1.61041000      13.63275000       0.27240400       0.07386900       0.37856900
C        1.39467000       4.02611000      13.55918000       0.04803400       0.06967200       0.26159700
C        4.18405000       0.80523000      13.55918000      -0.10943000       0.02744700       0.26500300
C        3.71912000       3.22088000      13.54332000      -0.00868100      -0.00702000       0.23491200
C       -2.32448000       4.56294000      13.57533000       0.04466900      -0.06583000       0.11838200
C        0.46490000       1.34206000      13.75132000      -0.01592700      -0.00015700       0.20531900
C       -0.00003000       3.75770000      13.57433000       0.00318300       0.12858500       0.10921000
C        2.78935000       0.53682000      13.57484000       0.08040500      -0.07205000       0.10762400
C        2.32448000       2.95247000      13.57606000       0.04874000       0.10059900       0.10804600
C        1.85954000       5.36812000      13.57410000      -0.10989200      -0.06712200       0.11788000
C        4.64892000       2.14723000      13.57604000      -0.04732100      -0.02334900       0.10826100
C        0.00000000       0.00000000      10.38828000      -0.17161800      -0.47504000      -0.31540700
C       -0.46487000       2.41565000      10.38761000      -0.32288200       0.40521000      -0.30275600
C       -0.92980000       4.83129000      10.43407000       0.13299300      -0.17084700      -0.17225200
C        1.85958000       1.61041000      10.38787000       0.51298000       0.09816000      -0.30342200
C        1.39467000       4.02611000      10.43399000       0.06742700       0.17858100      -0.17034900
C        4.18405000       0.80523000      10.43410000      -0.20588100      -0.01224500      -0.16975200
C        3.71912000       3.22088000      10.43856000      -0.00125300      -0.01459600      -0.11945600
C       -1.39467000       3.48929000      10.43333000      -0.10948400       0.16638600      -0.18765800
C        1.39471000       0.26841000      10.38923000       0.32483600      -0.36844600      -0.33899800
C        0.92977000       2.68406000      10.38879000       0.15675800       0.43049200      -0.33503000
C        0.46490000       5.09970000      10.43790000       0.02202400      -0.00140500      -0.13291800
C        3.25428000       1.87882000      10.43380000       0.17303400       0.00965600      -0.19938100
C        2.78935000       4.29447000      10.43394000      -0.07482300      -0.15967600      -0.17882000
C        5.57873000       1.07359000      10.38919000      -0.48789700      -0.08436700      -0.33950600
Li       0.46504000       1.34234000      11.86739000      -0.00247200       0.00102300       0.24324400
29
Lattice="6.508500099 0.0 0.0 -3.25425005 5.636526426 0.0 0.0 0.0 24.0" Properties=species:S:1:pos:R:3:forces:R:3 stress="-0.007620988748358598 1.9954104675448775e-05 -4.743546935671276e-07 1.9954104675448775e-05 -0.007608898945181762 -4.3066412968594477e-07 -4.743546935671276e-07 -4.3066412968594477e-07 -0.0061514191831602595" free_energy=-261.34356726 energy=-261.34108882 pbc="T T T"
C        0.00000000       0.00000000      13.66334000      -0.07858900      -0.29502900       0.10582400
C       -0.46487000       2.41565000      13.66212000      -0.20723500       0.21533900       0.14590200
C       -0.92980000       4.83129000      13.57769000       0.04496300      -0.10894400       0.15464400
C        1.85958000       1.61041000      13.66251000       0.29830500       0.07507800       0.14574100
C        1.39467000       4.02611000      13.57768000       0.05009900       0.07414000       0.15476800
C        4.18405000       0.80523000      13.57794000      -0.11633100       0.03128700       0.15489600
C        3.71912000       3.22088000      13.55898000      -0.00447300      -0.01542700       0.17392100
C       -2.32448000       4.56294000      13.58926000       0.03728800      -0.05410100       0.22270400
C        0.46490000       1.34206000      13.76731000      -0.00236000       0.00451300       0.55453800
C       -0.00003000       3.75770000      13.58754000       0.00127200       0.11510000       0.23024200
C        2.78935000       0.53682000      13.58810000       0.07949900      -0.05514100       0.22807100
C        2.32448000       2.95247000      13.58942000       0.03631500       0.07824000       0.22036200
C        1.85954000       5.36812000      13.58792000      -0.10098600      -0.06005900       0.22687800
C        4.64892000       2.14723000      13.58941000      -0.03142000      -0.01339100       0.21979500
C        0.00000000       0.00000000      10.35937000      -0.15263300      -0.42250700      -0.19864400
C       -0.46487000       2.41565000      10.35941000      -0.28203100       0.36463200      -0.21566300
C       -0.92980000       4.83129000      10.41911000       0.12491700      -0.15690500      -0.20491900
C        1.85958000       1.61041000      10.35970000       0.46391800       0.08263600      -0.22128400
C        1.39467000       4.02611000      10.41913000       0.05978800       0.16064700      -0.19820400
C        4.18405000       0.80523000      10.41935000      -0.19055200      -0.00606300      -0.20975100
C        3.71912000       3.22088000      10.42905000      -0.00234000      -0.01073200      -0.19063400
C       -1.39467000       3.48929000      10.41752000      -0.11247600       0.15715300      -0.17015600
C        1.39471000       0.26841000      10.35893000       0.27815400      -0.31892200      -0.18992300
C        0.92977000       2.68406000      10.35880000       0.13465700       0.39041200      -0.17832600
C        0.46490000       5.09970000      10.42756000       0.02760400       0.00106400      -0.15775100
C        3.25428000       1.87882000      10.41724000       0.16251000       0.01046800      -0.16148300
C        2.78935000       4.29447000      10.41886000      -0.07319800      -0.15156100      -0.18001500
C        5.57873000       1.07359000      10.35884000      -0.43812600      -0.09051200      -0.18929000
Li       0.46494000       1.34243000      11.89791000      -0.00653900      -0.00141500      -0.27224300
29
Lattice="6.508500099 0.0 0.0 -3.25425005 5.636526426 0.0 0.0 0.0 24.0" Properties=species:S:1:pos:R:3:forces:R:3 stress="-0.007205666248104075 -8.738112776236562e-08 1.0616807023127424e-05 -8.738112776236562e-08 -0.007163885586015412 1.1403237172988715e-05 1.0616807023127424e-05 1.1403237172988715e-05 -0.004205185566018216" free_energy=-261.48603615 energy=-261.48384774 pbc="T T T"
C        0.00000000       0.00000000      13.69531000      -0.07678000      -0.28478500       0.09832700
C       -0.46487000       2.41565000      13.69700000      -0.19675000       0.21476300       0.07419900
C       -0.92980000       4.83129000      13.60056000       0.03280400      -0.10155400       0.19381200
C        1.85958000       1.61041000      13.69757000       0.30044100       0.06348500       0.06971100
C        1.39467000       4.02611000      13.60056000       0.06129900       0.07595800       0.19230800
C        4.18405000       0.80523000      13.60098000      -0.10732000       0.02809200       0.18895800
C        3.71912000       3.22088000      13.58011000      -0.00712000      -0.01806900       0.21519400
C       -2.32448000       4.56294000      13.61648000       0.02756000      -0.04963400       0.17698800
C        0.46490000       1.34206000      13.80844000      -0.00027100       0.00976600       0.29014000
C       -0.00003000       3.75770000      13.61488000      -0.00351900       0.10592500       0.17872200
C        2.78935000       0.53682000      13.61533000       0.06686000      -0.05095000       0.17767700
C        2.32448000       2.95247000      13.61619000       0.03385100       0.07051600       0.17958300
C        1.85954000       5.36812000      13.61531000      -0.09630800      -0.05677800       0.17660000
C        4.64892000       2.14723000      13.61613000      -0.02475300      -0.01442800       0.17962100
C        0.00000000       0.00000000      10.32311000      -0.14551700      -0.39723400      -0.06981700
C       -0.46487000       2.41565000      10.32211000      -0.26190200       0.33197000      -0.09860900
C       -0.92980000       4.83129000      10.39334000       0.11177000      -0.13998100      -0.16292200
C        1.85958000       1.61041000      10.32202000       0.42571300       0.06855100      -0.09231500
C        1.39467000       4.02611000      10.39394000       0.05889500       0.15639700      -0.16175500
C        4.18405000       0.80523000      10.39333000      -0.17767600      -0.01021400      -0.16549400
C        3.71912000       3.22088000      10.40822000       0.00390600      -0.01121400      -0.19638800
C       -1.39467000       3.48929000      10.39405000      -0.10334500       0.14090100      -0.18922200
C        1.39471000       0.26841000      10.32258000       0.25363500      -0.30744900      -0.10634900
C        0.92977000       2.68406000      10.32351000       0.13728900       0.39052500      -0.10646000
C        0.46490000       5.09970000      10.40888000       0.02256000       0.00923200      -0.22902800
C        3.25428000       1.87882000      10.39404000       0.14378500       0.00881100      -0.19117200
C        2.78935000       4.29447000      10.39505000      -0.06843700      -0.14512500      -0.19572000
C        5.57873000       1.07359000      10.32251000      -0.40608300      -0.08571200      -0.10601300
Li       0.46441000       1.34235000      11.90847000      -0.00458700      -0.00176500      -0.32057600
29
Lattice="6.508500099 0.0 0.0 -3.25425005 5.636526426 0.0 0.0 0.0 24.0" Properties=species:S:1:pos:R:3:forces:R:3 stress="-0.007226394299911133 3.183169654200462e-07 1.3294414438131339e-06 3.183169654200462e-07 -0.007186798166016529 1.354407480316667e-06 1.3294414438131339e-06 1.354407480316667e-06 -0.0026362948660996967" free_energy=-261.60185973 energy=-261.59977291 pbc="T T T"
C        0.00000000       0.00000000      13.72450000      -0.07383300      -0.27410500       0.10004500
C       -0.46487000       2.41565000      13.72433000      -0.20063800       0.20090000       0.06589000
C       -0.92980000       4.83129000      13.62864000       0.03430000      -0.10728800       0.17891800
C        1.85958000       1.61041000      13.72457000       0.27234300       0.07122400       0.06079800
C        1.39467000       4.02611000      13.62850000       0.05021200       0.07280000       0.17956600
C        4.18405000       0.80523000      13.62868000      -0.11112900       0.03295300       0.17909700
C        3.71912000       3.22088000      13.60779000      -0.00336700      -0.01525200       0.19807900
C       -2.32448000       4.56294000      13.64475000       0.02898400      -0.02832600       0.15257300
C        0.46490000       1.34206000      13.83862000      -0.00829200       0.00159500       0.01612100
C       -0.00003000       3.75770000      13.64315000      -0.00270600       0.10403200       0.15017200
C        2.78935000       0.53682000      13.64351000       0.06823700      -0.04708100       0.15190100
C        2.32448000       2.95247000      13.64455000       0.03738600       0.06399600       0.14945400
C        1.85954000       5.36812000      13.64347000      -0.07549300      -0.06721400       0.15784800
C        4.64892000       2.14723000      13.64449000      -0.03312200      -0.01300500       0.14994200
C        0.00000000       0.00000000      10.29829000      -0.13919500      -0.38107700      -0.13955700
C       -0.46487000       2.41565000      10.29421000      -0.23631100       0.32545700      -0.07568700
C       -0.92980000       4.83129000      10.36729000       0.10728700      -0.13997300      -0.19517800
C        1.85958000       1.61041000      10.29470000       0.42257700       0.05568600      -0.08019400
C        1.39467000       4.02611000      10.36814000       0.05345500       0.14674400      -0.19535700
C        4.18405000       0.80523000      10.36702000      -0.17145600      -0.00461200      -0.19491000
C        3.71912000       3.22088000      10.38172000      -0.00133300      -0.01519700      -0.20269100
C       -1.39467000       3.48929000      10.36583000      -0.09958500       0.14425400      -0.14463100
C        1.39471000       0.26841000      10.29389000       0.24210500      -0.29367400      -0.02521800
C        0.92977000       2.68406000      10.29509000       0.13218900       0.38013300      -0.07024300
C        0.46490000       5.09970000      10.37954000       0.02810700       0.00664800      -0.14941100
C        3.25428000       1.87882000      10.36558000       0.14680200       0.00997000      -0.13678900
C        2.78935000       4.29447000      10.36629000      -0.06606300      -0.14115000      -0.13148200
C        5.57873000       1.07359000      10.29385000      -0.39995000      -0.09143400      -0.03010700
Li       0.46384000       1.34216000      11.89901000      -0.00150900       0.00299600      -0.11894700
29
Lattice="6.508500099 0.0 0.0 -3.25425005 5.636526426 0.0 0.0 0.0 24.0" Properties=species:S:1:pos:R:3:forces:R:3 stress="-0.0073617227007785335 8.644490139348312e-06 1.4062120060614982e-05 8.644490139348312e-06 -0.007378337598071636 4.687373353538327e-06 1.4062120060614982e-05 4.687373353538327e-06 -0.0015498416140663236" free_energy=-261.69525454 energy=-261.69324173 pbc="T T T"
C        0.00000000       0.00000000      13.75209000      -0.07460500      -0.27780800       0.00265500
C       -0.46487000       2.41565000      13.74923000      -0.19157200       0.19627700       0.02982600
C       -0.92980000       4.83129000      13.65727000       0.02555500      -0.10152200       0.16227100
C        1.85958000       1.61041000      13.74905000       0.27213700       0.06782600       0.03146300
C        1.39467000       4.02611000      13.65712000       0.05423800       0.07726600       0.16373100
C        4.18405000       0.80523000      13.65723000      -0.09792800       0.02669800       0.16517900
C        3.71912000       3.22088000      13.63666000      -0.00673400      -0.01643600       0.18063500
C       -2.32448000       4.56294000      13.67248000       0.02910800      -0.03825400       0.16310700
C        0.46490000       1.34206000      13.85678000      -0.01113700       0.00841200      -0.01256600
C       -0.00003000       3.75770000      13.67064000      -0.00085200       0.10641400       0.14092400
C        2.78935000       0.53682000      13.67109000       0.09551400      -0.04932200       0.13050100
C        2.32448000       2.95247000      13.67199000       0.02928200       0.04507300       0.12969200
C        1.85954000       5.36812000      13.67154000      -0.08274900      -0.06258000       0.16412600
C        4.64892000       2.14723000      13.67195000      -0.05166900       0.00959600       0.13117900
C        0.00000000       0.00000000      10.26915000      -0.13244100      -0.36649100      -0.01325900
C       -0.46487000       2.41565000      10.26840000      -0.23905100       0.30322900      -0.01040200
C       -0.92980000       4.83129000      10.33775000       0.10077300      -0.14179700      -0.12230500
C        1.85958000       1.61041000      10.26872000       0.39265400       0.05879300      -0.00766200
C        1.39467000       4.02611000      10.33878000       0.06167800       0.15784000      -0.13782300
C        4.18405000       0.80523000      10.33738000      -0.16336900      -0.00868700      -0.11658500
C        3.71912000       3.22088000      10.35310000      -0.00808000      -0.00308900      -0.14886100
C       -1.39467000       3.48929000      10.33944000      -0.09587300       0.13269000      -0.16445100
C        1.39471000       0.26841000      10.27140000       0.23997700      -0.27823100      -0.07429800
C        0.92977000       2.68406000      10.26969000       0.12685800       0.35586100      -0.07123200
C        0.46490000       5.09970000      10.35400000       0.02132400       0.00103500      -0.20351800
C        3.25428000       1.87882000      10.33964000       0.14747000       0.01085400      -0.16419300
C        2.78935000       4.29447000      10.34067000      -0.05356000      -0.13800100      -0.18526500
C        5.57873000       1.07359000      10.27102000      -0.38227200      -0.07580500      -0.07472300
Li       0.46344000       1.34230000      11.89575000      -0.00467800       0.00015900      -0.08814800
29
Lattice="6.508500099 0.0 0.0 -3.25425005 5.636526426 0.0 0.0 0.0 24.0" Properties=species:S:1:pos:R:3:forces:R:3 stress="-0.00744208213077428 4.4901416651604164e-05 6.160369507246775e-06 4.4901416651604164e-05 -0.007452923632125939 -1.5223040758029267e-05 6.160369507246775e-06 -1.5223040758029267e-05 -0.0002994114342777458" free_energy=-261.79521911 energy=-261.79332071 pbc="T T T"
C        0.00000000       0.00000000      13.78047000      -0.07087800      -0.27129900      -0.02169700
C       -0.46487000       2.41565000      13.77760000      -0.19249900       0.20315000      -0.00091400
C       -0.92980000       4.83129000      13.69437000       0.02408900      -0.11427300       0.13350900
C        1.85958000       1.61041000      13.77723000       0.27894400       0.07344100      -0.00354100
C        1.39467000       4.02611000      13.69428000       0.03869100       0.08316200       0.13482400
C        4.18405000       0.80523000      13.69441000      -0.08682000       0.03908700       0.12878000
C        3.71912000       3.22088000      13.67444000      -0.00385600      -0.00080300       0.17387800
C       -2.32448000       4.56294000      13.70964000       0.03109300      -0.04276100       0.09525200
C        0.46490000       1.34206000      13.87411000      -0.00857500       0.00628200      -0.01097900
C       -0.00003000       3.75770000      13.70608000       0.00102700       0.11218400       0.12148500
C        2.78935000       0.53682000      13.70584000       0.10684300      -0.05456200       0.13578200
C        2.32448000       2.95247000      13.70665000       0.03524000       0.04603600       0.12924500
C        1.85954000       5.36812000      13.70892000      -0.07919000      -0.07074000       0.10130300
C        4.64892000       2.14723000      13.70672000      -0.06441400       0.00881100       0.13088900
C        0.00000000       0.00000000      10.24085000      -0.12173800      -0.34236900      -0.03083400
C       -0.46487000       2.41565000      10.24127000      -0.22535700       0.29263900      -0.05283500
C       -0.92980000       4.83129000      10.30322000       0.09650000      -0.15987300      -0.11001700
C        1.85958000       1.61041000      10.24185000       0.37300700       0.06214100      -0.05106300
C        1.39467000       4.02611000      10.30336000       0.05516200       0.16977900      -0.13250100
C        4.18405000       0.80523000      10.30313000      -0.16146800      -0.00087800      -0.10746900