29
Lattice="6.508500099 0.0 0.0 -3.25425005 5.636526426 0.0 0.0 0.0 24.0" Properties=species:S:1:pos:R:3:forces:R:3 stress="-0.007831177809681842 1.6889523694640096e-05 -1.8724527377649775e-06 1.6889523694640096e-05 -0.007812802806815244 2.2906338491991557e-06 -1.8724527377649775e-06 2.2906338491991557e-06 -0.02130199602023802" free_energy=-259.42958202 energy=-259.42849223 pbc="T T T"
C        0.00000000       0.00000000      13.50000000      -0.10592000      -0.38902200       0.46318000
C       -0.46487000       2.41565000      13.50000000      -0.26556600       0.28654300       0.46343500
C       -0.92980000       4.83129000      13.50000000       0.03925000      -0.13648800       0.15906500
C        1.85958000       1.61041000      13.50000000       0.40095500       0.08471200       0.46336000
C        1.39467000       4.02611000      13.50000000       0.05893400       0.11298100       0.15907900
C        4.18405000       0.80523000      13.50000000      -0.11819000       0.03574600       0.15906900
C        3.71912000       3.22088000      13.50000000      -0.02429100      -0.00536900       0.15358300
C       -2.32448000       4.56294000      13.50000000       0.07561300      -0.07727900       0.22622400
C        0.46490000       1.34206000      13.50000000      -0.00995300       0.00044700       7.72463600
C       -0.00003000       3.75770000      13.50000000       0.01679800       0.18505400       0.21690900
C        2.78935000       0.53682000      13.50000000       0.15998300      -0.10234900       0.21687200
C        2.32448000       2.95247000      13.50000000       0.04070400       0.09921300       0.22621400
C        1.85954000       5.36812000      13.50000000      -0.15819200      -0.08921800       0.21689000
C        4.64892000       2.14723000      13.50000000      -0.10944300      -0.01006200       0.22624900
C        0.00000000       0.00000000      10.50000000      -0.14633800      -0.41851600      -0.50946800
C       -0.46487000       2.41565000      10.50000000      -0.26376200       0.34284600      -0.50961100
C       -0.92980000       4.83129000      10.50000000       0.11415900      -0.18300200      -0.11241700
C        1.85958000       1.61041000      10.50000000       0.45412900       0.06606100      -0.50962000
C        1.39467000       4.02611000      10.50000000       0.06750400       0.20382800      -0.11243100
C        4.18405000       0.80523000      10.50000000      -0.19122900      -0.00193300      -0.11241400
C        3.71912000       3.22088000      10.50000000      -0.01873800      -0.00387200      -0.16020000
C       -1.39467000       3.48929000      10.50000000      -0.09779400       0.14749600      -0.16608400
C        1.39471000       0.26841000      10.50000000       0.27242800      -0.31869100      -0.52478500
C        0.92977000       2.68406000      10.50000000       0.14274100       0.40872900      -0.52490000
C        0.46490000       5.09970000      10.50000000      -0.00641100      -0.00257700      -0.21232200
C        3.25428000       1.87882000      10.50000000       0.17917800       0.00779400      -0.16617500
C        2.78935000       4.29447000      10.50000000      -0.07360500      -0.16327000      -0.16612700
C        5.57873000       1.07359000      10.50000000      -0.43128100      -0.09009000      -0.52487500
Li       0.46490000       1.34206000      12.00000000      -0.00166500       0.01028600      -6.76333500
29
Lattice="6.508500099 0.0 0.0 -3.25425005 5.636526426 0.0 0.0 0.0 24.0" Properties=species:S:1:pos:R:3:forces:R:3 stress="-0.009103191128027726 2.1676761194192554e-05 1.932371225373457e-05 2.1676761194192554e-05 -0.009081601747961295 1.1734037156660526e-06 1.932371225373457e-05 1.1734037156660526e-06 -0.008362954387207097" free_energy=-259.62878695 energy=-259.62806024 pbc="T T T"
C        0.00000000       0.00000000      13.52235000       0.10854100       0.24975100       2.16132800
C       -0.46487000       2.41565000      13.52236000       0.16990900      -0.21859400       2.12716000
C       -0.92980000       4.83129000      13.50767000       0.04937000      -0.13164200       0.14973500
C        1.85958000       1.61041000      13.52235000      -0.26016600      -0.04028700       2.12316400
C        1.39467000       4.02611000      13.50767000       0.05332200       0.10509200       0.14966600
C        4.18405000       0.80523000      13.50767000      -0.12315700       0.03347300       0.14974300
C        3.71912000       3.22088000      13.50741000      -0.01898200      -0.01475000      -0.31907700
C       -2.32448000       4.56294000      13.51091000       0.01739300      -0.06749300       0.08966400
C        0.46490000       1.34206000      13.87266000      -0.00813500       0.00220200      -4.45747800
C       -0.00003000       3.75770000      13.51046000      -0.07923200       0.14528500       0.07760600
C        2.78935000       0.53682000      13.51046000       0.17589900       0.00085900       0.07823600
C        2.32448000       2.95247000      13.51091000       0.06907700       0.05122300       0.09829100
C        1.85954000       5.36812000      13.51046000      -0.06276200      -0.15527400       0.06995600
C        4.64892000       2.14723000      13.51091000      -0.07858600       0.03765400       0.09823400
C        0.00000000       0.00000000      10.47542000      -0.34850800      -0.99360400      -0.95620100
C       -0.46487000       2.41565000      10.47542000      -0.67903300       0.80475400      -0.92585400
C       -0.92980000       4.83129000      10.49458000       0.13186100      -0.19485600      -0.20491300
C        1.85958000       1.61041000      10.47541000       1.04318800       0.18769500      -0.92697100
C        1.39467000       4.02611000      10.49458000       0.06213100       0.21804700      -0.20518400
C        4.18405000       0.80523000      10.49458000      -0.20341600      -0.00486900      -0.20501400
C        3.71912000       3.22088000      10.49227000      -0.01269600      -0.01015300      -0.14148100
C       -1.39467000       3.48929000      10.49199000      -0.10856600       0.14854900      -0.18669500
C        1.39471000       0.26841000      10.47468000       0.65827000      -0.77204500      -0.90659300
C        0.92977000       2.68406000      10.47468000       0.34743400       0.96901700      -0.92704900
C        0.46490000       5.09970000      10.48976000      -0.00432300      -0.00195800      -0.11496000
C        3.25428000       1.87882000      10.49198000       0.18869700       0.01798500      -0.18188200
C        2.78935000       4.29447000      10.49199000      -0.06107000      -0.16825400      -0.17593600
C        5.57873000       1.07359000      10.47468000      -1.02024900      -0.19583300      -0.90757200
Li       0.46482000       1.34255000      11.67372000      -0.00621300      -0.00197300       4.37007500
29
Lattice="6.508500099 0.0 0.0 -3.25425005 5.636526426 0.0 0.0 0.0 24.0" Properties=species:S:1:pos:R:3:forces:R:3 stress="-0.008252230015313928 4.2392329982999086e-05 -2.5402942142344863e-06 4.2392329982999086e-05 -0.0082278194731226 3.063332678983503e-05 -2.5402942142344863e-06 3.063332678983503e-05 -0.009659983674129518" free_energy=-260.72738085 energy=-260.72580637 pbc="T T T"
C        0.00000000       0.00000000      13.58371000      -0.05866400      -0.21885800       0.51199500
C       -0.46487000       2.41565000      13.58275000      -0.15584600       0.17077500       0.54405200
C       -0.92980000       4.83129000      13.51193000       0.02731300      -0.11291600       0.06934900
C        1.85958000       1.61041000      13.58264000       0.23197900       0.06178500       0.54614600
C        1.39467000       4.02611000      13.51192000       0.04918900       0.07482700       0.06925000
C        4.18405000       0.80523000      13.51193000      -0.09712400       0.04198600       0.06970700
C        3.71912000       3.22088000      13.49835000      -0.02254200      -0.00617900      -0.05771900
C       -2.32448000       4.56294000      13.51346000       0.03227300      -0.01384900       0.41024600
C        0.46490000       1.34206000      13.74609000      -0.00984200       0.00227800      -0.78467500
C       -0.00003000       3.75770000      13.51267000      -0.00037000       0.09104000       0.39503800
C        2.78935000       0.53682000      13.51268000       0.08995600      -0.04093000       0.39436100
C        2.32448000       2.95247000      13.51370000       0.01118400       0.04017800       0.40624200
C        1.85954000       5.36812000      13.51245000      -0.05444200      -0.05974600       0.39761900
C        4.64892000       2.14723000      13.51370000      -0.03655500       0.00059100       0.40664200
C        0.00000000       0.00000000      10.44827000      -0.23447300      -0.65954500      -0.57747900
C       -0.46487000       2.41565000      10.44913000      -0.44299700       0.54121800      -0.58663000
C       -0.92980000       4.83129000      10.48876000       0.13457000      -0.19057800      -0.24996900
C        1.85958000       1.61041000      10.44909000       0.70277000       0.11663000      -0.58461600
C        1.39467000       4.02611000      10.48875000       0.06592700       0.20394000      -0.25188900
C        4.18405000       0.80523000      10.48876000      -0.20748500      -0.00725900      -0.24895600
C        3.71912000       3.22088000      10.48825000      -0.01168500      -0.01049900      -0.12829700
C       -1.39467000       3.48929000      10.48669000      -0.09855200       0.14448600      -0.23428600
C        1.39471000       0.26841000      10.44894000       0.42690500      -0.50061400      -0.56197300
C        0.92977000       2.68406000      10.44836000       0.21401000       0.61041500      -0.55764300
C        0.46490000       5.09970000      10.48649000      -0.00430200       0.00296600      -0.11542600
C        3.25428000       1.87882000      10.48682000       0.17956000       0.00947600      -0.23553100
C        2.78935000       4.29447000      10.48699000      -0.06291000      -0.15487000      -0.23646000
C        5.57873000       1.07359000      10.44891000      -0.67065500      -0.14017900      -0.56278800
Li       0.46465000       1.34250000      11.79780000       0.00280700       0.00343000       1.75369200
29
Lattice="6.508500099 0.0 0.0 -3.25425005 5.636526426 0.0 0.0 0.0 24.0" Properties=species:S:1:pos:R:3:forces:R:3 stress="-0.007808970520211951 4.9027054183812985e-05 3.844769621544087e-06 4.9027054183812985e-05 -0.00784522120521508 1.1534308864632262e-05 3.844769621544087e-06 1.1534308864632262e-05 -0.00937393531089029" free_energy=-260.9551581 energy=-260.95315779 pbc="T T T"
C        0.00000000       0.00000000      13.59811000      -0.07427100      -0.26844800       0.45432300
C       -0.46487000       2.41565000      13.59915000      -0.19692000       0.20147200       0.44348900
C       -0.92980000       4.83129000      13.51480000       0.02616000      -0.11320800       0.34118100
C        1.85958000       1.61041000      13.59917000       0.27618300       0.06652300       0.44331600
C        1.39467000       4.02611000      13.51479000       0.05598800       0.07798700       0.34097500
C        4.18405000       0.80523000      13.51482000      -0.10356600       0.03960500       0.33880000
C        3.71912000       3.22088000      13.49721000      -0.02288900      -0.00555900       0.33071300
C       -2.32448000       4.56294000      13.53561000       0.04281900      -0.04795700       0.12465800
C        0.46490000       1.34206000      13.73144000      -0.00782100       0.00064200       0.18614700
C       -0.00003000       3.75770000      13.53406000       0.00056800       0.11635300       0.13533000
C        2.78935000       0.53682000      13.53403000       0.09598100      -0.05430600       0.14777500
C        2.32448000       2.95247000      13.53558000       0.03592600       0.06833400       0.14558500
C        1.85954000       5.36812000      13.53403000      -0.09304400      -0.06988500       0.12807600
C        4.64892000       2.14723000      13.53560000      -0.05553400      -0.00633100       0.14532400
C        0.00000000       0.00000000      10.42245000      -0.18827200      -0.52318700      -0.34397400
C       -0.46487000       2.41565000      10.42261000      -0.35145100       0.44724000      -0.37003000
C       -0.92980000       4.83129000      10.47623000       0.11923700      -0.16318200      -0.22737700
C        1.85958000       1.61041000      10.42269000       0.56908500       0.10160600      -0.36930000
C        1.39467000       4.02611000      10.47612000       0.07896900       0.18806000      -0.22280600
C        4.18405000       0.80523000      10.47629000      -0.18962300      -0.01625600      -0.23175000
C        3.71912000       3.22088000      10.48206000      -0.00713900      -0.00494500      -0.17732400
C       -1.39467000       3.48929000      10.47491000      -0.08970800       0.13764700      -0.24536800
C        1.39471000       0.26841000      10.42366000       0.34897700      -0.40139700      -0.39057700
C        0.92977000       2.68406000      10.42345000       0.16629200       0.46627500      -0.39365300
C        0.46490000       5.09970000      10.48084000      -0.00575800       0.00382800      -0.18798200
C        3.25428000       1.87882000      10.47494000       0.16457900       0.00652300      -0.22785100
C        2.78935000       4.29447000      10.47502000      -0.06323400      -0.14900600      -0.23247700
C        5.57873000       1.07359000      10.42359000      -0.52934800      -0.09817700      -0.39060500
Li       0.46484000       1.34270000      11.86672000      -0.00218500      -0.00025000       0.30538100
29
Lattice="6.508500099 0.0 0.0 -3.25425005 5.636526426 0.0 0.0 0.0 24.0" Properties=species:S:1:pos:R:3:forces:R:3 stress="-0.0074848926418687135 3.1719349377738714e-05 -3.0508496607317365e-05 3.1719349377738714e-05 -0.007503436165481713 9.493335380468435e-06 -3.0508496607317365e-05 9.493335380468435e-06 -0.008234316884122643" free_energy=-261.13175364 energy=-261.12926041 pbc="T T T"
C        0.00000000       0.00000000      13.63300000      -0.08784600      -0.31745200       0.15878500
C       -0.46487000       2.41565000      13.63409000      -0.22976300       0.24515100       0.14029900
C       -0.92980000       4.83129000      13.53943000       0.02767400      -0.11449100       0.19818300
C        1.85958000       1.61041000      13.63416000       0.33136800       0.08558700       0.14437600
C        1.39467000       4.02611000      13.53941000       0.06447000       0.08355400       0.19876600
C        4.18405000       0.80523000      13.53930000      -0.10825400       0.02787900       0.20590500
C        3.71912000       3.22088000      13.52005000      -0.01070300      -0.01045300       0.22408700
C       -2.32448000       4.56294000      13.55268000       0.03173600      -0.02477300       0.26858700
C        0.46490000       1.34206000      13.74320000      -0.01381000      -0.00232400       0.81304500
C       -0.00003000       3.75770000      13.55158000      -0.00261400       0.10024400       0.26724900
C        2.78935000       0.53682000      13.55241000       0.06939100      -0.04796000       0.26052700
C        2.32448000       2.95247000      13.55399000       0.03479600       0.06114100       0.26599000
C        1.85954000       5.36812000      13.55114000      -0.07305600      -0.06981100       0.26212900
C        4.64892000       2.14723000      13.55400000      -0.02976600      -0.01975500       0.26472300
C        0.00000000       0.00000000      10.38963000      -0.16245300      -0.44969400      -0.24706100
C       -0.46487000       2.41565000      10.38767000      -0.30602100       0.38311700      -0.21941700
C       -0.92980000       4.83129000      10.45585000       0.10537400      -0.14836300      -0.24379500
C        1.85958000       1.61041000      10.38785000       0.48495600       0.09227700      -0.21283600
C        1.39467000       4.02611000      10.45601000       0.07053800       0.16433400      -0.24193800
C        4.18405000       0.80523000      10.45562000      -0.17096900      -0.01130300      -0.23558700
C        3.71912000       3.22088000      10.46752000      -0.00880000      -0.00246000      -0.23035400
C       -1.39467000       3.48929000      10.45355000      -0.09336800       0.13749200      -0.21919800
C        1.39471000       0.26841000      10.38776000       0.30595400      -0.34572700      -0.20755500
C        0.92977000       2.68406000      10.38749000       0.13851400       0.40809600      -0.20395500
C        0.46490000       5.09970000      10.46574000       0.00687900      -0.00358500      -0.22154400
C        3.25428000       1.87882000      10.45475000       0.14782000       0.00366100      -0.23854500
C        2.78935000       4.29447000      10.45447000      -0.05912500      -0.14076100      -0.20078500
C        5.57873000       1.07359000      10.38767000      -0.45831700      -0.08025300      -0.20727800
Li       0.46477000       1.34276000      11.91000000      -0.00460500      -0.00336800      -0.54280100
29
Lattice="6.508500099 0.0 0.0 -3.25425005 5.636526426 0.0 0.0 0.0 24.0" Properties=species:S:1:pos:R:3:forces:R:3 stress="-0.00708932451799761 5.579909158539633e-06 -2.8074308048222895e-05 5.579909158539633e-06 -0.007058347908205851 3.694973402522889e-06 -2.8074308048222895e-05 3.694973402522889e-06 -0.005550692654321373" free_energy=-261.35457578 energy=-261.35219608 pbc="T T T"
C        0.00000000       0.00000000      13.67797000      -0.08412500      -0.31014900       0.03193400
C       -0.46487000       2.41565000      13.67778000      -0.21622500       0.22681100       0.08557000
C       -0.92980000       4.83129000      13.57098000       0.03812800      -0.11661000       0.23892500
C        1.85958000       1.61041000      13.67822000       0.31307000       0.07481700       0.09013600
C        1.39467000       4.02611000      13.57100000       0.05980000       0.07674800       0.23923100
C        4.18405000       0.80523000      13.57139000      -0.11901600       0.03682000       0.24043600
C        3.71912000       3.22088000      13.54995000      -0.00802800      -0.00491600       0.26421400
C       -2.32448000       4.56294000      13.58874000       0.02499200      -0.03575500       0.22064100
C        0.46490000       1.34206000      13.79454000       0.00158900       0.01234200       0.44723700
C       -0.00003000       3.75770000      13.58761000      -0.00283500       0.09366500       0.21205400
C        2.78935000       0.53682000      13.58837000       0.06364900      -0.04126000       0.20725800
C        2.32448000       2.95247000      13.59059000       0.02803400       0.05920100       0.20525300
C        1.85954000       5.36812000      13.58650000      -0.08051500      -0.05142800       0.22171900
C        4.64892000       2.14723000      13.59050000      -0.01116600      -0.01186100       0.20592700
C        0.00000000       0.00000000      10.34185000      -0.14945100      -0.41577100      -0.07224800
C       -0.46487000       2.41565000      10.34094000      -0.27291300       0.34651800      -0.10622200
C       -0.92980000       4.83129000      10.42109000       0.10816000      -0.13935500      -0.21875400
C        1.85958000       1.61041000      10.34174000       0.44642800       0.07149900      -0.10795300
C        1.39467000       4.02611000      10.42155000       0.04941300       0.13934800      -0.20706300
C        4.18405000       0.80523000      10.42138000      -0.16426700      -0.00156800      -0.22086800
C        3.71912000       3.22088000      10.43861000      -0.00013500      -0.01389400      -0.25068800
C       -1.39467000       3.48929000      10.42045000      -0.09743700       0.13655400      -0.21160300
C        1.39471000       0.26841000      10.34174000       0.27031000      -0.30896500      -0.10241400
C        0.92977000       2.68406000      10.34172000       0.13314600       0.38914300      -0.08879900
C        0.46490000       5.09970000      10.43744000       0.02244000       0.00063500      -0.25764800
C        3.25428000       1.87882000      10.42075000       0.13467900       0.00569800      -0.21016500
C        2.78935000       4.29447000      10.42336000      -0.06095000      -0.12387000      -0.23619500
C        5.57873000       1.07359000      10.34166000      -0.42806800      -0.09190500      -0.10494200
Li       0.46436000       1.34255000      11.92159000       0.00129100      -0.00249200      -0.51497400
29
Lattice="6.508500099 0.0 0.0 -3.25425005 5.636526426 0.0 0.0 0.0 24.0" Properties=species:S:1:pos:R:3:forces:R:3 stress="-0.007034792452764768 1.5260489812784567e-05 1.4773652100965673e-05 1.5260489812784567e-05 -0.006967714954188901 7.2276675677728126e-06 1.4773652100965673e-05 7.2276675677728126e-06 -0.0031878070954809933" free_energy=-261.53589129 energy=-261.53376455 pbc="T T T"
C        0.00000000       0.00000000      13.71217000      -0.07327000      -0.27291800       0.11847500
C       -0.46487000       2.41565000      13.71659000      -0.20041000       0.21702800       0.04532800
C       -0.92980000       4.83129000      13.60940000       0.04296500      -0.10364100       0.19528800
C        1.85958000       1.61041000      13.71758000       0.29660600       0.07420100       0.03308200
C        1.39467000       4.02611000      13.60946000       0.05860900       0.06431900       0.19463400
C        4.18405000       0.80523000      13.61011000      -0.11974300       0.03298800       0.18423500
C        3.71912000       3.22088000      13.58772000       0.00046100      -0.01699000       0.23584200
C       -2.32448000       4.56294000      13.62730000       0.02247700      -0.03575900       0.16537100
C        0.46490000       1.34206000      13.83828000      -0.01148900      -0.00599800      -0.00613000
C       -0.00003000       3.75770000      13.62534000      -0.00441300       0.08936700       0.19881600
C        2.78935000       0.53682000      13.62578000       0.04786800      -0.04327500       0.19462400
C        2.32448000       2.95247000      13.62817000       0.03408300       0.05548100       0.18151500
C        1.85954000       5.36812000      13.62481000      -0.07684500      -0.05264200       0.17615100
C        4.64892000       2.14723000      13.62811000      -0.01626600      -0.01513500       0.18032400
C        0.00000000       0.00000000      10.30654000      -0.14255800      -0.39315400      -0.07571400
C       -0.46487000       2.41565000      10.30249000      -0.24731000       0.33193300      -0.03296000
C       -0.92980000       4.83129000      10.38307000       0.10978000      -0.13048100      -0.17745700
C        1.85958000       1.61041000      10.30336000       0.43181600       0.06136600      -0.03830100
C        1.39467000       4.02611000      10.38475000       0.05133800       0.13549700      -0.18114300
C        4.18405000       0.80523000      10.38329000      -0.16748200      -0.00860000      -0.18261700
C        3.71912000       3.22088000      10.40161000       0.00200900      -0.00199200      -0.23082100
C       -1.39467000       3.48929000      10.38361000      -0.09935000       0.13407100      -0.18704000
C        1.39471000       0.26841000      10.30390000       0.24823300      -0.29720200      -0.05091100
C        0.92977000       2.68406000      10.30517000       0.13591000       0.39050000      -0.07164200
C        0.46490000       5.09970000      10.40004000       0.01965300       0.00874600      -0.22620300
C        3.25428000       1.87882000      10.38397000       0.13445400       0.00796000      -0.19178500
C        2.78935000       4.29447000      10.38510000      -0.06696600      -0.13290100      -0.18603000
C        5.57873000       1.07359000      10.30357000      -0.40761200      -0.09529800      -0.05008500
Li       0.46432000       1.34227000      11.90869000      -0.00254700       0.00252900      -0.21484700
29
Lattice="6.508500099 0.0 0.0 -3.25425005 5.636526426 0.0 0.0 0.0 24.0" Properties=species:S:1:pos:R:3:forces:R:3 stress="-0.007206976965020509 5.0743469193430885e-06 -6.066746870358527e-06 5.0743469193430885e-06 -0.0071978393956602165 -7.177735494765747e-07 -6.066746870358527e-06 -7.177735494765747e-07 -0.0021219320990356573" free_energy=-261.63852818 energy=-261.6364688 pbc="T T T"
C        0.00000000       0.00000000      13.73778000      -0.07706100      -0.27968800       0.02316300
C       -0.46487000       2.41565000      13.73789000      -0.19825100       0.20381600       0.01993900
C       -0.92980000       4.83129000      13.63766000       0.03649500      -0.10570800       0.18935400
C        1.85958000       1.61041000      13.73816000       0.28318300       0.06981700       0.01866800
C        1.39467000       4.02611000      13.63767000       0.04899800       0.06711200       0.18767000
C        4.18405000       0.80523000      13.63767000      -0.11289800       0.03401800       0.18994100
C        3.71912000       3.22088000      13.61797000      -0.00626400      -0.02016300       0.18937400
C       -2.32448000       4.56294000      13.65390000       0.02812600      -0.02642500       0.17890400
C        0.46490000       1.34206000      13.84932000      -0.01710000      -0.00147400       0.01054000
C       -0.00003000       3.75770000      13.65416000      -0.00221100       0.10077800       0.12751800
C        2.78935000       0.53682000      13.65426000       0.07334100      -0.04345600       0.13218700
C        2.32448000       2.95247000      13.65582000       0.03274900       0.05259800       0.13925400
C        1.85954000       5.36812000      13.65203000      -0.06929800      -0.06496000       0.18013100
C        4.64892000       2.14723000      13.65567000      -0.03703200      -0.00329300       0.13888100
C        0.00000000       0.00000000      10.28450000      -0.13670000      -0.37576000      -0.08336200
C       -0.46487000       2.41565000      10.28280000      -0.24822500       0.31838800      -0.04243000
C       -0.92980000       4.83129000      10.35583000       0.10182700      -0.14200400      -0.15583200
C        1.85958000       1.61041000      10.28336000       0.40930100       0.06627600      -0.04749600
C        1.39467000       4.02611000      10.35758000       0.05206600       0.14547500      -0.17613000
C        4.18405000       0.80523000      10.35569000      -0.16201600      -0.00005300      -0.15456100
C        3.71912000       3.22088000      10.37178000      -0.00459800      -0.01014400      -0.18464700
C       -1.39467000       3.48929000      10.35611000      -0.10002100       0.14141400      -0.15943400
C        1.39471000       0.26841000      10.28311000       0.23829600      -0.29186000      -0.03909400
C        0.92977000       2.68406000      10.28320000       0.13739100       0.37078900      -0.04418100
C        0.46490000       5.09970000      10.37053000       0.02518500      -0.00000800      -0.17613200
C        3.25428000       1.87882000      10.35610000       0.14529000       0.01076700      -0.15484600
C        2.78935000       4.29447000      10.35754000      -0.05085100      -0.13221000      -0.16107400
C        5.57873000       1.07359000      10.28278000      -0.38768800      -0.08595400      -0.03838000
Li       0.46409000       1.34237000      11.89915000      -0.00203200       0.00191200      -0.10792600
29
Lattice="6.508500099 0.0 0.0 -3.25425005 5.636526426 0.0 0.0 0.0 24.0" Properties=species:S:1:pos:R:3:forces:R:3 stress="-0.007535611145025641 6.157248752683834e-05 3.3329658732216603e-06 6.157248752683834e-05 -0.007535517522388753 1.1297131517848697e-06 3.3329658732216603e-06 1.1297131517848697e-06 -5.5736676494137506e-06" free_energy=-261.82228562 energy=-261.82042438 pbc="T T T"
C        0.00000000       0.00000000      13.78687000      -0.06900200      -0.26453100       0.00018100
C       -0.46487000       2.41565000      13.78476000      -0.19852400       0.20339400       0.00106200
C       -0.92980000       4.83129000      13.70656000       0.02513600      -0.11060100       0.10742000
C        1.85958000       1.61041000      13.78455000       0.27476200       0.07874600       0.00377400
C        1.39467000       4.02611000      13.70634000       0.03769000       0.08385400       0.11427500
C        4.18405000       0.80523000      13.70628000      -0.08364100       0.03980400       0.11150700
C        3.71912000       3.22088000      13.68698000      -0.01546100      -0.01082700       0.16142100
C       -2.32448000       4.56294000      13.72090000       0.03634800      -0.05259600       0.08541400
C        0.46490000       1.34206000      13.87694000      -0.00344500      -0.00137200      -0.01355200
C       -0.00003000       3.75770000      13.71570000       0.00242700       0.11554200       0.14842900
C        2.78935000       0.53682000      13.71609000       0.10994900      -0.06350600       0.13955600
C        2.32448000       2.95247000      13.71816000       0.03350200       0.05623700       0.11039400
C        1.85954000       5.36812000      13.71945000      -0.08571900      -0.06890700       0.10302500
C        4.64892000       2.14723000      13.71788000      -0.06159400       0.01396800       0.11665800
C        0.00000000       0.00000000      10.23080000      -0.11921000      -0.33617300       0.03866100
C       -0.46487000       2.41565000      10.23525000      -0.21969900       0.29074500      -0.04972900
C       -0.92980000       4.83129000      10.29176000       0.11062400      -0.16484500      -0.09853900
C        1.85958000       1.61041000      10.23502000       0.36858200       0.06488000      -0.03943000
C        1.39467000       4.02611000      10.29137000       0.05427800       0.16866600      -0.08927400
C        4.18405000       0.80523000      10.29154000      -0.17227600      -0.00124100      -0.09561400