29
Lattice="6.508500099 0.0 0.0 -3.25425005 5.636526426 0.0 0.0 0.0 24.0" Properties=species:S:1:pos:R:3:forces:R:3 stress="-0.007991434797998022 1.78195085543967e-05 -2.2469432853179729e-07 1.78195085543967e-05 -0.00798064322871937 5.30528275700077e-07 -2.2469432853179729e-07 5.30528275700077e-07 0.00048528357604654926" free_energy=-261.85202446 energy=-261.84988094 pbc="T T T"
C        0.00000000       0.00000000      13.85000000      -0.06802500      -0.27750800       0.01444000
C       -0.46487000       2.41565000      13.85000000      -0.19874000       0.19587300       0.02209700
C       -0.92980000       4.83129000      13.85000000       0.04226600      -0.10922400       0.00567800
C        1.85958000       1.61041000      13.85000000       0.27650000       0.07457300       0.02352000
C        1.39467000       4.02611000      13.85000000       0.05213200       0.09669200       0.00565500
C        4.18405000       0.80523000      13.85000000      -0.11000800       0.01352300       0.00692000
C        3.71912000       3.22088000      13.85000000      -0.00872900      -0.00336000      -0.01200400
C       -2.32448000       4.56294000      13.85000000       0.05801800      -0.08475200       0.00685500
C        0.46490000       1.34206000      13.85000000      -0.01630800      -0.00060800       1.74331600
C       -0.00003000       3.75770000      13.85000000      -0.01299800       0.18115900      -0.00407400
C        2.78935000       0.53682000      13.85000000       0.14272600      -0.07691100      -0.00919300
C        2.32448000       2.95247000      13.85000000       0.07398800       0.11528600       0.00070100
C        1.85954000       5.36812000      13.85000000      -0.13575700      -0.11716000      -0.00293500
C        4.64892000       2.14723000      13.85000000      -0.09507700      -0.00925400       0.00063800
C        0.00000000       0.00000000      10.15000000      -0.07386400      -0.20365000      -0.03513100
C       -0.46487000       2.41565000      10.15000000      -0.12961500       0.17138900      -0.04395600
C       -0.92980000       4.83129000      10.15000000       0.10734900      -0.14849400       0.03142500
C        1.85958000       1.61041000      10.15000000       0.22447700       0.02983500      -0.04298500
C        1.39467000       4.02611000      10.15000000       0.06606200       0.17044300       0.03142700
C        4.18405000       0.80523000      10.15000000      -0.17087300      -0.01078700       0.03270300
C        3.71912000       3.22088000      10.15000000      -0.00812700      -0.00113200      -0.00942600
C       -1.39467000       3.48929000      10.15000000      -0.11813900       0.15814700       0.02315000
C        1.39471000       0.26841000      10.15000000       0.12721000      -0.15442000      -0.05363000
C        0.92977000       2.68406000      10.15000000       0.06327300       0.18070500      -0.04728400
C        0.46490000       5.09970000      10.15000000       0.02184300       0.00029900      -0.01815500
C        3.25428000       1.87882000      10.15000000       0.17006400       0.01773900       0.01807700
C        2.78935000       4.29447000      10.15000000      -0.05456700      -0.15886900       0.01694100
C        5.57873000       1.07359000      10.15000000      -0.22447700      -0.05330600      -0.05378400
Li       0.46490000       1.34206000      12.00000000      -0.00060400       0.00377100      -1.65098600
29
Lattice="6.508500099 0.0 0.0 -3.25425005 5.636526426 0.0 0.0 0.0 24.0" Properties=species:S:1:pos:R:3:forces:R:3 stress="-0.008051933745955208 2.8698458960811222e-05 -4.025773386194702e-06 2.8698458960811222e-05 -0.008047446100893698 1.11098862440722e-05 -4.025773386194702e-06 1.11098862440722e-05 0.0022723025368964365" free_energy=-261.98575714 energy=-261.98373556 pbc="T T T"
C        0.00000000       0.00000000      13.85070000      -0.04922000      -0.21474600       0.44630700
C       -0.46487000       2.41565000      13.85107000      -0.15475500       0.14833700       0.44780400
C       -0.92980000       4.83129000      13.85027000       0.03860300      -0.09040800      -0.00920000
C        1.85958000       1.61041000      13.85113000       0.21222100       0.05963600       0.44653700
C        1.39467000       4.02611000      13.85027000       0.03711400       0.08417300      -0.00923000
C        4.18405000       0.80523000      13.85033000      -0.09219300       0.00670400      -0.01060900
C        3.71912000       3.22088000      13.84942000      -0.00886000      -0.00349800      -0.12382700
C       -2.32448000       4.56294000      13.85033000       0.06379700      -0.09050600      -0.02688200
C        0.46490000       1.34206000      13.93410000      -0.00898700       0.00169500      -0.32164400
C       -0.00003000       3.75770000      13.84980000       0.00131400       0.17727100      -0.02289400
C        2.78935000       0.53682000      13.84956000       0.13199600      -0.08792300      -0.02487700
C        2.32448000       2.95247000      13.85003000       0.07423800       0.12272400      -0.02498000
C        1.85954000       5.36812000      13.84986000      -0.14015500      -0.10290600      -0.02482200
C        4.64892000       2.14723000      13.85003000      -0.10222900      -0.01279200      -0.02500600
C        0.00000000       0.00000000      10.14831000      -0.08688800      -0.23746800      -0.08078400
C       -0.46487000       2.41565000      10.14788000      -0.15271000       0.19892800      -0.08132800
C       -0.92980000       4.83129000      10.15152000       0.11382200      -0.15676700       0.00633000
C        1.85958000       1.61041000      10.14793000       0.25959900       0.03535800      -0.08267300
C        1.39467000       4.02611000      10.15152000       0.06968900       0.18036800       0.00633400
C        4.18405000       0.80523000      10.15158000      -0.18163700      -0.01270000       0.00494200
C        3.71912000       3.22088000      10.14955000      -0.00836100      -0.00132300       0.01305200
C       -1.39467000       3.48929000      10.15112000      -0.12483400       0.16574900       0.01186800
C        1.39471000       0.26841000      10.14741000       0.15351700      -0.17872100      -0.06700600
C        0.92977000       2.68406000      10.14772000       0.07921100       0.21395200      -0.06013800
C        0.46490000       5.09970000      10.14912000       0.01930800       0.00334400       0.03169400
C        3.25428000       1.87882000      10.15087000       0.17986000       0.01911800       0.00964000
C        2.78935000       4.29447000      10.15082000      -0.05856800      -0.16856800       0.01171300
C        5.57873000       1.07359000      10.14741000      -0.26314800      -0.05753000      -0.06707000
Li       0.46487000       1.34224000      11.92035000      -0.00174200      -0.00150000      -0.37325000
29
Lattice="6.508500099 0.0 0.0 -3.25425005 5.636526426 0.0 0.0 0.0 24.0" Properties=species:S:1:pos:R:3:forces:R:3 stress="-0.0080819054727777 3.3367107786971894e-05 -5.592392176791399e-06 3.3367107786971894e-05 -0.008102802045331156 1.1796452247919359e-05 -5.592392176791399e-06 1.1796452247919359e-05 0.002290502777507512" free_energy=-262.00938194 energy=-262.00738543 pbc="T T T"
C        0.00000000       0.00000000      13.86960000      -0.06288600      -0.24406600       0.09260000
C       -0.46487000       2.41565000      13.87003000      -0.17576400       0.17583300       0.09626300
C       -0.92980000       4.83129000      13.84988000       0.03136300      -0.08674800      -0.04149300
C        1.85958000       1.61041000      13.87004000       0.24700800       0.06390100       0.09298600
C        1.39467000       4.02611000      13.84988000       0.03813700       0.07648800      -0.04098800
C        4.18405000       0.80523000      13.84988000      -0.08546000       0.01187000      -0.04212400
C        3.71912000       3.22088000      13.84418000      -0.01079100      -0.01211000      -0.08246600
C       -2.32448000       4.56294000      13.84919000       0.05987500      -0.08007100       0.07018200
C        0.46490000       1.34206000      13.92048000      -0.01022700      -0.00497400       0.16734400
C       -0.00003000       3.75770000      13.84883000       0.00109300       0.16107600       0.07398000
C        2.78935000       0.53682000      13.84850000       0.11792600      -0.07880800       0.07205000
C        2.32448000       2.95247000      13.84898000       0.06881300       0.11465300       0.06917500
C        1.85954000       5.36812000      13.84881000      -0.12547500      -0.09451000       0.07210800
C        4.64892000       2.14723000      13.84897000      -0.09189600      -0.01295300       0.06908700
C        0.00000000       0.00000000      10.14488000      -0.08916600      -0.24379300      -0.06244000
C       -0.46487000       2.41565000      10.14444000      -0.15927200       0.20392900      -0.06833100
C       -0.92980000       4.83129000      10.15178000       0.11517200      -0.15760800       0.00594500
C        1.85958000       1.61041000      10.14443000       0.26498100       0.03832400      -0.06939200
C        1.39467000       4.02611000      10.15178000       0.07041800       0.18251700       0.00766200
C        4.18405000       0.80523000      10.15179000      -0.18323200      -0.01272400       0.00423900
C        3.71912000       3.22088000      10.15010000      -0.00821300      -0.00094000       0.01717600
C       -1.39467000       3.48929000      10.15162000      -0.12566400       0.16697100      -0.00075900
C        1.39471000       0.26841000      10.14458000       0.15646500      -0.18634600      -0.07105000
C        0.92977000       2.68406000      10.14517000       0.08355800       0.22806600      -0.06390400
C        0.46490000       5.09970000      10.15047000       0.02175400       0.00046800       0.01237500
C        3.25428000       1.87882000      10.15128000       0.18127300       0.01989000      -0.00277300
C        2.78935000       4.29447000      10.15131000      -0.05879100      -0.16951300      -0.00078600
C        5.57873000       1.07359000      10.14457000      -0.26692900      -0.05775300      -0.07120400
Li       0.46480000       1.34218000      11.90455000      -0.00407000      -0.00106900      -0.30546200
29
Lattice="6.508500099 0.0 0.0 -3.25425005 5.636526426 0.0 0.0 0.0 24.0" Properties=species:S:1:pos:R:3:forces:R:3 stress="-0.008069204001706527 3.564525861791929e-05 -1.935491979936398e-05 3.564525861791929e-05 -0.008052969836470103 7.458603405430494e-06 -1.935491979936398e-05 7.458603405430494e-06 0.002559218469904164" free_energy=-262.01962304 energy=-262.01770245 pbc="T T T"
C        0.00000000       0.00000000      13.87827000      -0.06469900      -0.24384500       0.03873300
C       -0.46487000       2.41565000      13.87895000      -0.17199400       0.17813800       0.06130600
C       -0.92980000       4.83129000      13.84715000       0.02924600      -0.08434900       0.06386400
C        1.85958000       1.61041000      13.87875000       0.24688100       0.05916600       0.06855300
C        1.39467000       4.02611000      13.84718000       0.03412600       0.07015800       0.06370400
C        4.18405000       0.80523000      13.84710000      -0.08373800       0.01576700       0.06332700
C        3.71912000       3.22088000      13.83810000      -0.00654400      -0.01743400       0.06484600
C       -2.32448000       4.56294000      13.85357000       0.05905400      -0.08270100      -0.00172600
C        0.46490000       1.34206000      13.92937000      -0.00728200       0.00326400       0.06967700
C       -0.00003000       3.75770000      13.85348000       0.00216300       0.15380400      -0.01251900
C        2.78935000       0.53682000      13.85301000       0.11851700      -0.07540800      -0.00294200
C        2.32448000       2.95247000      13.85330000       0.06440200       0.10470100      -0.00784800
C        1.85954000       5.36812000      13.85332000      -0.12462200      -0.08869500       0.00351600
C        4.64892000       2.14723000      13.85329000      -0.09396500      -0.00584500      -0.00713000
C        0.00000000       0.00000000      10.14036000      -0.09294100      -0.25364900      -0.05127100
C       -0.46487000       2.41565000      10.13953000      -0.16379800       0.21364400      -0.06168900
C       -0.92980000       4.83129000      10.15221000       0.11949700      -0.16137400      -0.00713500
C        1.85958000       1.61041000      10.13944000       0.27604200       0.03894500      -0.06281500
C        1.39467000       4.02611000      10.15232000       0.06680000       0.18261100      -0.00369100
C        4.18405000       0.80523000      10.15209000      -0.18714600      -0.01165100      -0.00830900
C        3.71912000       3.22088000      10.15129000      -0.00842500      -0.00093000       0.01135900
C       -1.39467000       3.48929000      10.15164000      -0.12719500       0.16798800      -0.00258200
C        1.39471000       0.26841000      10.13958000       0.16687000      -0.19399000      -0.06189600
C        0.92977000       2.68406000      10.14068000       0.08578300       0.23996400      -0.06440900
C        0.46490000       5.09970000      10.15146000       0.02149900       0.00047100       0.01722600
C        3.25428000       1.87882000      10.15116000       0.18261500       0.02030000      -0.00470100
C        2.78935000       4.29447000      10.15133000      -0.05957900      -0.17142000       0.00032400
C        5.57873000       1.07359000      10.13956000      -0.27959200      -0.05580700      -0.06220600
Li       0.46453000       1.34210000      11.88254000      -0.00197400      -0.00182300      -0.10356400
29
Lattice="6.508500099 0.0 0.0 -3.25425005 5.636526426 0.0 0.0 0.0 24.0" Properties=species:S:1:pos:R:3:forces:R:3 stress="-0.008071076454444293 2.3973636552517595e-05 -2.6052059091436717e-05 2.3973636552517595e-05 -0.00805536033446532 1.4018429496733799e-05 -2.6052059091436717e-05 1.4018429496733799e-05 0.0026269076363743685" free_energy=-262.0225123 energy=-262.02060716 pbc="T T T"
C        0.00000000       0.00000000      13.88161000      -0.06551400      -0.24406400       0.01911200
C       -0.46487000       2.41565000      13.88324000      -0.17332100       0.18169300       0.02372500
C       -0.92980000       4.83129000      13.84934000       0.02589100      -0.08181500       0.03445100
C        1.85958000       1.61041000      13.88330000       0.25105400       0.06194500       0.02434500
C        1.39467000       4.02611000      13.84937000       0.03556700       0.06955300       0.03440300
C        4.18405000       0.80523000      13.84926000      -0.07915700       0.01315500       0.03556100
C        3.71912000       3.22088000      13.83972000      -0.00694300      -0.01733100       0.03444200
C       -2.32448000       4.56294000      13.85407000       0.05764300      -0.08083400       0.02814200
C        0.46490000       1.34206000      13.93302000      -0.00932700       0.00167800       0.05022800
C       -0.00003000       3.75770000      13.85359000       0.00180100       0.14928600       0.02948900
C        2.78935000       0.53682000      13.85349000       0.11504300      -0.07433500       0.03111700
C        2.32448000       2.95247000      13.85355000       0.06129100       0.10153000       0.02822900
C        1.85954000       5.36812000      13.85406000      -0.12223500      -0.08701100       0.03091400
C        4.64892000       2.14723000      13.85357000      -0.09098500      -0.00533000       0.02692500
C        0.00000000       0.00000000      10.13755000      -0.09458400      -0.25725700      -0.05672900
C       -0.46487000       2.41565000      10.13624000      -0.16529100       0.21644600      -0.05857100
C       -0.92980000       4.83129000      10.15198000       0.11919500      -0.16160700      -0.01038400
C        1.85958000       1.61041000      10.13610000       0.27969300       0.03867500      -0.06009200
C        1.39467000       4.02611000      10.15225000       0.06659200       0.18250400      -0.00817800
C        4.18405000       0.80523000      10.15180000      -0.18580000      -0.01343200      -0.01045200
C        3.71912000       3.22088000      10.15193000      -0.00883300      -0.00105500       0.00555900
C       -1.39467000       3.48929000      10.15156000      -0.12776600       0.16786300      -0.00928000
C        1.39471000       0.26841000      10.13629000       0.16789800      -0.19706600      -0.05683500
C        0.92977000       2.68406000      10.13737000       0.08736800       0.24511200      -0.06167800
C        0.46490000       5.09970000      10.15233000       0.02107200       0.00030400       0.00736900
C        3.25428000       1.87882000      10.15096000       0.18247900       0.02012800      -0.01158700
C        2.78935000       4.29447000      10.15136000      -0.06012300      -0.17218200      -0.00400600
C        5.57873000       1.07359000      10.13626000      -0.28289000      -0.05715600      -0.05695700
Li       0.46441000       1.34201000      11.87482000       0.00018200       0.00060100      -0.03926400
29
Lattice="6.508500099 0.0 0.0 -3.25425005 5.636526426 0.0 0.0 0.0 24.0" Properties=species:S:1:pos:R:3:forces:R:3 stress="-0.008047146508455656 6.984248711863366e-06 -1.798802930079555e-05 6.984248711863366e-06 -0.008040062395597779 1.3019788036592478e-05 -1.798802930079555e-05 1.3019788036592478e-05 0.002745427653165765" free_energy=-262.02508448 energy=-262.02318869 pbc="T T T"
C        0.00000000       0.00000000      13.88419000      -0.06586400      -0.24310900       0.02490200
C       -0.46487000       2.41565000      13.88621000      -0.16928900       0.18559000       0.01372100
C       -0.92980000       4.83129000      13.85168000       0.02493900      -0.08117200       0.03554600
C        1.85958000       1.61041000      13.88631000       0.25853500       0.05890400       0.01416100
C        1.39467000       4.02611000      13.85171000       0.03458200       0.06850000       0.03560400
C        4.18405000       0.80523000      13.85167000      -0.07884200       0.01289300       0.03603600
C        3.71912000       3.22088000      13.84170000      -0.00664400      -0.01589900       0.03199700
C       -2.32448000       4.56294000      13.85621000       0.05693100      -0.07910900       0.02903500
C        0.46490000       1.34206000      13.93666000      -0.01349800       0.00249700       0.00518400
C       -0.00003000       3.75770000      13.85582000       0.00149700       0.14777100       0.03698600
C        2.78935000       0.53682000      13.85584000       0.11564500      -0.07297100       0.03232100
C        2.32448000       2.95247000      13.85568000       0.05962300       0.09828700       0.03224400
C        1.85954000       5.36812000      13.85641000      -0.12074200      -0.08728100       0.03123300
C        4.64892000       2.14723000      13.85561000      -0.09253000      -0.00371200       0.03211000
C        0.00000000       0.00000000      10.13316000      -0.09565900      -0.25890000      -0.05350200
C       -0.46487000       2.41565000      10.13167000      -0.16578900       0.21516000      -0.04865500
C       -0.92980000       4.83129000      10.15129000       0.11480000      -0.15847700      -0.01418200
C        1.85958000       1.61041000      10.13141000       0.28046500       0.03722300      -0.04887000
C        1.39467000       4.02611000      10.15172000       0.06972500       0.18305600      -0.01339100
C        4.18405000       0.80523000      10.15109000      -0.18559400      -0.01364700      -0.01672000
C        3.71912000       3.22088000      10.15243000      -0.00973600      -0.00372400      -0.00550300
C       -1.39467000       3.48929000      10.15093000      -0.12793400       0.16695000      -0.01760800
C        1.39471000       0.26841000      10.13185000       0.16893800      -0.20224400      -0.04295700
C        0.92977000       2.68406000      10.13263000       0.08836200       0.24893900      -0.04118500
C        0.46490000       5.09970000      10.15298000       0.02046900       0.00013100      -0.00566900
C        3.25428000       1.87882000      10.15017000       0.18113800       0.01992300      -0.01900800
C        2.78935000       4.29447000      10.15111000      -0.06025600      -0.17178000      -0.01458700
C        5.57873000       1.07359000      10.13181000      -0.28214400      -0.05521300      -0.04221800
Li       0.46439000       1.34204000      11.87004000      -0.00112800       0.00141400      -0.00702500
29
Lattice="6.508500099 0.0 0.0 -3.25425005 5.636526426 0.0 0.0 0.0 24.0" Properties=species:S:1:pos:R:3:forces:R:3 stress="-0.008008823642422731 -5.1866940836089875e-06 -1.8050444392054386e-05 -5.1866940836089875e-06 -0.007995317016674322 1.411829364274793e-05 -1.8050444392054386e-05 1.411829364274793e-05 0.0028736719411752883" free_energy=-262.02822631 energy=-262.02632166 pbc="T T T"
C        0.00000000       0.00000000      13.88767000      -0.06553700      -0.24467800       0.01488900
C       -0.46487000       2.41565000      13.88838000      -0.16723000       0.18511700       0.01608800
C       -0.92980000       4.83129000      13.85623000       0.02591700      -0.07903900       0.03062300
C        1.85958000       1.61041000      13.88856000       0.26049900       0.05733400       0.01073400
C        1.39467000       4.02611000      13.85626000       0.03668200       0.06655000       0.03214500
C        4.18405000       0.80523000      13.85627000      -0.07823500       0.01015000       0.02920400
C        3.71912000       3.22088000      13.84571000      -0.01134200      -0.01286000       0.03166600
C       -2.32448000       4.56294000      13.85985000       0.05764100      -0.08053600       0.03634900
C        0.46490000       1.34206000      13.93763000      -0.01251100       0.00417900       0.00830800
C       -0.00003000       3.75770000      13.86040000       0.00218900       0.14864600       0.02636000
C        2.78935000       0.53682000      13.85988000       0.11698600      -0.07362800       0.03675300
C        2.32448000       2.95247000      13.85969000       0.06141100       0.09831000       0.02816200
C        1.85954000       5.36812000      13.86034000      -0.12351200      -0.08827900       0.03981800
C        4.64892000       2.14723000      13.85961000      -0.09338500      -0.00424600       0.02788000
C        0.00000000       0.00000000      10.12630000      -0.09478000      -0.25865300      -0.00244400
C       -0.46487000       2.41565000      10.12537000      -0.17099300       0.21330000      -0.02820600
C       -0.92980000       4.83129000      10.14953000       0.11457500      -0.15768300      -0.02695900
C        1.85958000       1.61041000      10.12509000       0.27490400       0.04131000      -0.02675500
C        1.39467000       4.02611000      10.15007000       0.06964100       0.18157100      -0.02360800
C        4.18405000       0.80523000      10.14901000      -0.18382500      -0.01403800      -0.02657100
C        3.71912000       3.22088000      10.15181000      -0.00864900      -0.00172500      -0.02449000
C       -1.39467000       3.48929000      10.14875000      -0.12810600       0.16159900      -0.01633000
C        1.39471000       0.26841000      10.12626000       0.16704600      -0.19942400      -0.04118300
C        0.92977000       2.68406000      10.12727000       0.09537500       0.25614300      -0.04060700
C        0.46490000       5.09970000      10.15236000       0.02110300      -0.00017800      -0.02106000
C        3.25428000       1.87882000      10.14781000       0.17526200       0.02184900      -0.00387100
C        2.78935000       4.29447000      10.14931000      -0.05838100      -0.17291500      -0.02669300
C        5.57873000       1.07359000      10.12631000      -0.28220700      -0.05853700      -0.04345300
Li       0.46424000       1.34221000      11.86828000      -0.00054000       0.00036000      -0.01674800
29
Lattice="6.508500099 0.0 0.0 -3.25425005 5.636526426 0.0 0.0 0.0 24.0" Properties=species:S:1:pos:R:3:forces:R:3 stress="-0.008013654570486166 -1.4342987971279727e-05 -2.078422538919125e-05 -1.4342987971279727e-05 -0.008008093385855005 2.775599108280285e-05 -2.078422538919125e-05 2.775599108280285e-05 0.002904998075478097" free_energy=-262.02972936 energy=-262.02781867 pbc="T T T"
C        0.00000000       0.00000000      13.88926000      -0.06634100      -0.24436100       0.01535600
C       -0.46487000       2.41565000      13.88975000      -0.16823700       0.18513600       0.01750500
C       -0.92980000       4.83129000      13.85852000       0.02606500      -0.08110800       0.03303700
C        1.85958000       1.61041000      13.88976000       0.25900900       0.05774600       0.01561200
C        1.39467000       4.02611000      13.85861000       0.03286500       0.06716500       0.03322000
C        4.18405000       0.80523000      13.85852000      -0.08061600       0.01445600       0.03209600
C        3.71912000       3.22088000      13.84787000      -0.01070600      -0.00769300       0.03248600
C       -2.32448000       4.56294000      13.86208000       0.05943000      -0.08545000       0.03310200
C        0.46490000       1.34206000      13.93828000      -0.01289800       0.00423600       0.00532000
C       -0.00003000       3.75770000      13.86248000       0.00121700       0.14910900       0.02834300
C        2.78935000       0.53682000      13.86222000       0.11869500      -0.07304000       0.03226600
C        2.32448000       2.95247000      13.86170000       0.06002700       0.09656200       0.02598200
C        1.85954000       5.36812000      13.86278000      -0.12375400      -0.08807500       0.03605800
C        4.64892000       2.14723000      13.86161000      -0.09601000      -0.00224200       0.02618100
C        0.00000000       0.00000000      10.12442000      -0.09557800      -0.25821300      -0.01851800
C       -0.46487000       2.41565000      10.12267000      -0.16579200       0.21636800      -0.02173800
C       -0.92980000       4.83129000      10.14812000       0.11326900      -0.15667000      -0.03165800
C        1.85958000       1.61041000      10.12242000       0.27902900       0.03916800      -0.01863700
C        1.39467000       4.02611000      10.14881000       0.06865600       0.18119500      -0.03139600
C        4.18405000       0.80523000      10.14753000      -0.18377400      -0.01511400      -0.02448700
C        3.71912000       3.22088000      10.15080000      -0.00956900      -0.00137200      -0.02598800
C       -1.39467000       3.48929000      10.14763000      -0.12898300       0.16107700      -0.02135800
C        1.39471000       0.26841000      10.12325000       0.16203800      -0.20796200      -0.02655500
C        0.92977000       2.68406000      10.12434000       0.09814500       0.25907500      -0.03450400
C        0.46490000       5.09970000      10.15149000       0.02017200       0.00015800      -0.02917300
C        3.25428000       1.87882000      10.14709000       0.17863500       0.01967200      -0.01264000
C        2.78935000       4.29447000      10.14791000      -0.05929300      -0.17282600      -0.02648700
C        5.57873000       1.07359000      10.12324000      -0.27353800      -0.05736600      -0.02865100
Li       0.46418000       1.34226000      11.86686000      -0.00216500       0.00037100      -0.01477500
29
Lattice="6.508500099 0.0 0.0 -3.25425005 5.636526426 0.0 0.0 0.0 24.0" Properties=species:S:1:pos:R:3:forces:R:3 stress="-0.008001552284291079 -1.580350110673641e-05 -1.8824391523663907e-05 -1.580350110673641e-05 -0.007978508632598318 1.551639168694578e-05 -1.8824391523663907e-05 1.551639168694578e-05 0.002968424291215322" free_energy=-262.03112898 energy=-262.02921713 pbc="T T T"
C        0.00000000       0.00000000      13.89067000      -0.06625000      -0.24471900       0.02030300
C       -0.46487000       2.41565000      13.89117000      -0.17006300       0.18443700       0.01547800
C       -0.92980000       4.83129000      13.86089000       0.02461600      -0.08016800       0.02954100
C        1.85958000       1.61041000      13.89110000       0.25795200       0.05864100       0.01557600
C        1.39467000       4.02611000      13.86099000       0.03433700       0.06741800       0.02866900
C        4.18405000       0.80523000      13.86085000      -0.07899500       0.01304200       0.02897400
C        3.71912000       3.22088000      13.85012000      -0.01000700      -0.00364000       0.03313300
C       -2.32448000       4.56294000      13.86431000       0.05386800      -0.08275700       0.02102600
C        0.46490000       1.34206000      13.93878000      -0.01271400       0.00394300       0.00763000
C       -0.00003000       3.75770000      13.86454000       0.00123000       0.14879100       0.03257700
C        2.78935000       0.53682000      13.86444000       0.12040700      -0.07615900       0.02287600
C        2.32448000       2.95247000      13.86357000       0.06147100       0.09607700       0.02832500
C        1.85954000       5.36812000      13.86521000      -0.12456100      -0.08498600       0.02210400
C        4.64892000       2.14723000      13.86349000      -0.09679200      -0.00367400       0.02859700
C        0.00000000       0.00000000      10.12255000      -0.09543200      -0.25858800      -0.01370500
C       -0.46487000       2.41565000      10.12066000      -0.16690000       0.21983900      -0.02052500
C       -0.92980000       4.83129000      10.14618000       0.11293000      -0.15532000      -0.02786400
C        1.85958000       1.61041000      10.12058000       0.28306600       0.04051100      -0.01611500
C        1.39467000       4.02611000      10.14691000       0.06997900       0.17985000      -0.03207400
C        4.18405000       0.80523000      10.14595000      -0.18385900      -0.01604700      -0.02419900