29
Lattice="6.508500099 0.0 0.0 -3.25425005 5.636526426 0.0 0.0 0.0 24.0" Properties=species:S:1:pos:R:3:forces:R:3 stress="-0.00792383301265558 1.775709346313787e-05 -4.1193960230829507e-07 1.775709346313787e-05 -0.007911424892513324 6.678414764695085e-07 -4.1193960230829507e-07 6.678414764695085e-07 -0.003343020944423458" free_energy=-261.5732744 energy=-261.57139116 pbc="T T T"
C        0.00000000       0.00000000      13.75000000      -0.07193700      -0.29254700       0.10390600
C       -0.46487000       2.41565000      13.75000000      -0.20973700       0.20666400       0.09599400
C       -0.92980000       4.83129000      13.75000000       0.04406700      -0.11473900       0.01675200
C        1.85958000       1.61041000      13.75000000       0.29124400       0.07870500       0.09477100
C        1.39467000       4.02611000      13.75000000       0.05598000       0.10099800       0.01676800
C        4.18405000       0.80523000      13.75000000      -0.11568900       0.01464800       0.01549000
C        3.71912000       3.22088000      13.75000000      -0.00871600      -0.00338100      -0.00108300
C       -2.32448000       4.56294000      13.75000000       0.06083900      -0.08269400       0.00831600
C        0.46490000       1.34206000      13.75000000      -0.01622700      -0.00064600       2.73955700
C       -0.00003000       3.75770000      13.75000000      -0.00962900       0.18391800      -0.00036500
C        2.78935000       0.53682000      13.75000000       0.14357300      -0.08126800       0.00471200
C        2.32448000       2.95247000      13.75000000       0.07077600       0.11652400       0.01459100
C        1.85954000       5.36812000      13.75000000      -0.13983300      -0.11577300      -0.00148600
C        4.64892000       2.14723000      13.75000000      -0.09456800      -0.01279000       0.01454300
C        0.00000000       0.00000000      10.25000000      -0.08697200      -0.24119700      -0.13171400
C       -0.46487000       2.41565000      10.25000000      -0.15553800       0.20148700      -0.12255900
C       -0.92980000       4.83129000      10.25000000       0.11093600      -0.15549800       0.02533200
C        1.85958000       1.61041000      10.25000000       0.26327000       0.03702300      -0.12380100
C        1.39467000       4.02611000      10.25000000       0.07034200       0.17694600       0.02533100
C        4.18405000       0.80523000      10.25000000      -0.17866500      -0.01045700       0.02407000
C        3.71912000       3.22088000      10.25000000      -0.00810000      -0.00119000      -0.02035800
C       -1.39467000       3.48929000      10.25000000      -0.11911900       0.16396800       0.01641000
C        1.39471000       0.26841000      10.25000000       0.15279800      -0.18302400      -0.11527500
C        0.92977000       2.68406000      10.25000000       0.07533300       0.21709600      -0.12144800
C        0.46490000       5.09970000      10.25000000       0.02185100       0.00025400      -0.02697500
C        3.25428000       1.87882000      10.25000000       0.17569100       0.01565000       0.02153100
C        2.78935000       4.29447000      10.25000000      -0.05912800      -0.16272900       0.02266000
C        5.57873000       1.07359000      10.25000000      -0.26195200      -0.06104500      -0.11535300
Li       0.46490000       1.34206000      12.00000000      -0.00089000       0.00509900      -2.48031700
29
Lattice="6.508500099 0.0 0.0 -3.25425005 5.636526426 0.0 0.0 0.0 24.0" Properties=species:S:1:pos:R:3:forces:R:3 stress="-0.008065914726397186 3.5183386942603926e-05 7.876784516864671e-06 3.5183386942603926e-05 -0.00807188160912153 -1.0523184386239173e-05 7.876784516864671e-06 -1.0523184386239173e-05 1.3856150259460833e-05" free_energy=-261.81739609 energy=-261.81559738 pbc="T T T"
C        0.00000000       0.00000000      13.75501000      -0.03557400      -0.17263900       0.72021800
C       -0.46487000       2.41565000      13.75463000      -0.12245800       0.12013600       0.72429300
C       -0.92980000       4.83129000      13.75081000       0.03850700      -0.09065200      -0.00754500
C        1.85958000       1.61041000      13.75457000       0.17685400       0.05314900       0.72386600
C        1.39467000       4.02611000      13.75081000       0.03668200       0.08497700      -0.00759900
C        4.18405000       0.80523000      13.75075000      -0.09330700       0.00665300      -0.00617700
C        3.71912000       3.22088000      13.74995000      -0.00969800      -0.00339800      -0.18362100
C       -2.32448000       4.56294000      13.75040000       0.06444600      -0.08805000      -0.01073000
C        0.46490000       1.34206000      13.88216000      -0.01186600      -0.00558100      -0.82340000
C       -0.00003000       3.75770000      13.74998000       0.00094400       0.17641300      -0.01751900
C        2.78935000       0.53682000      13.75023000       0.13070600      -0.08729300      -0.01558200
C        2.32448000       2.95247000      13.75070000       0.07267100       0.12308700      -0.01068400
C        1.85954000       5.36812000      13.74993000      -0.13955100      -0.10223200      -0.01558300
C        4.64892000       2.14723000      13.75070000      -0.10248700      -0.01390900      -0.01074800
C        0.00000000       0.00000000      10.24365000      -0.11503800      -0.31311500      -0.18688400
C       -0.46487000       2.41565000      10.24409000      -0.20316600       0.27054000      -0.19125300
C       -0.92980000       4.83129000      10.25122000       0.11964800      -0.16707500      -0.00599900
C        1.85958000       1.61041000      10.24403000       0.34542200       0.05113900      -0.19076400
C        1.39467000       4.02611000      10.25122000       0.07463200       0.19088300      -0.00601600
C        4.18405000       0.80523000      10.25116000      -0.19417400      -0.01299800      -0.00475600
C        3.71912000       3.22088000      10.24902000      -0.00886300      -0.00121100       0.01573000
C       -1.39467000       3.48929000      10.25079000      -0.13004900       0.17050900      -0.01548600
C        1.39471000       0.26841000      10.24444000       0.20135500      -0.24093800      -0.18980700
C        0.92977000       2.68406000      10.24414000       0.09984700       0.28749300      -0.19073400
C        0.46490000       5.09970000      10.24870000       0.02105100       0.00023100       0.01742100
C        3.25428000       1.87882000      10.25104000       0.18774400       0.01791800      -0.00315000
C        2.78935000       4.29447000      10.25109000      -0.06391500      -0.17768400      -0.00901600
C        5.57873000       1.07359000      10.24444000      -0.33630100      -0.07425300      -0.19003900
Li       0.46486000       1.34230000      11.88034000      -0.00406200      -0.00210000       0.09156300
29
Lattice="6.508500099 0.0 0.0 -3.25425005 5.636526426 0.0 0.0 0.0 24.0" Properties=species:S:1:pos:R:3:forces:R:3 stress="-0.008083940204752737 2.4173364844545858e-05 -8.937841068264826e-06 2.4173364844545858e-05 -0.008108793894092005 -8.675697684977728e-07 -8.937841068264826e-06 -8.675697684977728e-07 -0.00025399197236869334" free_energy=-261.8698304 energy=-261.86804709 pbc="T T T"
C        0.00000000       0.00000000      13.78191000      -0.06447100      -0.24761100       0.13367100
C       -0.46487000       2.41565000      13.78169000      -0.18213600       0.18934200       0.15730300
C       -0.92980000       4.83129000      13.75053000       0.02986900      -0.09042900      -0.04029700
C        1.85958000       1.61041000      13.78161000       0.25795300       0.07311800       0.16054000
C        1.39467000       4.02611000      13.75053000       0.03965900       0.07481100      -0.04028500
C        4.18405000       0.80523000      13.75052000      -0.08722100       0.01178000      -0.03907200
C        3.71912000       3.22088000      13.74309000      -0.01019700      -0.00764700      -0.09475800
C       -2.32448000       4.56294000      13.75000000       0.05850400      -0.07462900       0.11605100
C        0.46490000       1.34206000      13.85141000      -0.01684400       0.00065600       0.21787200
C       -0.00003000       3.75770000      13.74933000       0.00327700       0.15197800       0.11624900
C        2.78935000       0.53682000      13.74965000       0.11293400      -0.07982400       0.12564100
C        2.32448000       2.95247000      13.75030000       0.06287100       0.10856300       0.11697600
C        1.85954000       5.36812000      13.74935000      -0.12169100      -0.08977000       0.11835300
C        4.64892000       2.14723000      13.75030000      -0.08631000      -0.01769300       0.11739400
C        0.00000000       0.00000000      10.23667000      -0.11230600      -0.30862900      -0.16081900
C       -0.46487000       2.41565000      10.23694000      -0.20393000       0.26970400      -0.15758400
C       -0.92980000       4.83129000      10.25100000       0.11907200      -0.16755900      -0.02654000
C        1.85958000       1.61041000      10.23690000       0.34057200       0.05906800      -0.15158400
C        1.39467000       4.02611000      10.25100000       0.07426400       0.18799600      -0.02531300
C        4.18405000       0.80523000      10.25098000      -0.19265700      -0.01444900      -0.02309200
C        3.71912000       3.22088000      10.24961000      -0.00867200      -0.00275000       0.01099500
C       -1.39467000       3.48929000      10.25021000      -0.12790700       0.17042900      -0.02295000
C        1.39471000       0.26841000      10.23735000       0.20219700      -0.24412700      -0.15463300
C        0.92977000       2.68406000      10.23702000       0.09686900       0.28029300      -0.15925400
C        0.46490000       5.09970000      10.24935000       0.02125700      -0.00135400       0.01537000
C        3.25428000       1.87882000      10.25092000       0.18645400       0.01630500      -0.02187400
C        2.78935000       4.29447000      10.25076000      -0.06303100      -0.17818900      -0.02449400
C        5.57873000       1.07359000      10.23734000      -0.32702200      -0.06406900      -0.15260200
Li       0.46471000       1.34222000      11.88376000      -0.00135800      -0.00531200      -0.11126300
29
Lattice="6.508500099 0.0 0.0 -3.25425005 5.636526426 0.0 0.0 0.0 24.0" Properties=species:S:1:pos:R:3:forces:R:3 stress="-0.008034551143039623 2.7287877898361603e-05 2.6588828876262677e-06 2.7287877898361603e-05 -0.008049212447976323 -1.1378271136485178e-05 2.6588828876262677e-06 -1.1378271136485178e-05 8.524029013218766e-05" free_energy=-261.88727282 energy=-261.88551127 pbc="T T T"
C        0.00000000       0.00000000      13.79075000      -0.06455800      -0.24627300       0.14720900
C       -0.46487000       2.41565000      13.79185000      -0.18682300       0.18727900       0.13113900
C       -0.92980000       4.83129000      13.74826000       0.02765800      -0.08942600       0.08497600
C        1.85958000       1.61041000      13.79195000       0.25466900       0.07333000       0.13304800
C        1.39467000       4.02611000      13.74826000       0.04002000       0.07209100       0.08279300
C        4.18405000       0.80523000      13.74832000      -0.08536300       0.01324900       0.08663900
C        3.71912000       3.22088000      13.73745000      -0.00976300      -0.00630100       0.06643700
C       -2.32448000       4.56294000      13.75645000       0.05660500      -0.07526500       0.01839700
C        0.46490000       1.34206000      13.86199000      -0.01383200       0.00276400       0.15775000
C       -0.00003000       3.75770000      13.75578000       0.00329800       0.14759800       0.03819900
C        2.78935000       0.53682000      13.75663000       0.10694700      -0.07768300       0.02724400
C        2.32448000       2.95247000      13.75681000       0.06356600       0.10601800       0.02819300
C        1.85954000       5.36812000      13.75592000      -0.11838400      -0.08855700       0.02134000
C        4.64892000       2.14723000      13.75683000      -0.08475800      -0.01607300       0.02773100
C        0.00000000       0.00000000      10.22733000      -0.11245900      -0.30941600      -0.08710700
C       -0.46487000       2.41565000      10.22779000      -0.20204000       0.27010200      -0.13142300
C       -0.92980000       4.83129000      10.24951000       0.11819800      -0.16636900      -0.04101900
C        1.85958000       1.61041000      10.22808000       0.33989800       0.05585600      -0.13375900
C        1.39467000       4.02611000      10.24957000       0.07343900       0.18616500      -0.04243600
C        4.18405000       0.80523000      10.24969000      -0.19096500      -0.01433700      -0.03813100
C        3.71912000       3.22088000      10.25025000      -0.00866100      -0.00275500      -0.00883400
C       -1.39467000       3.48929000      10.24890000      -0.12643700       0.16973100      -0.03909100
C        1.39471000       0.26841000      10.22836000       0.20924800      -0.24792400      -0.13619600
C        0.92977000       2.68406000      10.22777000       0.09612000       0.27579800      -0.13045400
C        0.46490000       5.09970000      10.25024000       0.02074500      -0.00073900      -0.01318900
C        3.25428000       1.87882000      10.24969000       0.18482900       0.01610800      -0.03910200
C        2.78935000       4.29447000      10.24937000      -0.06231100      -0.17396600      -0.04022600
C        5.57873000       1.07359000      10.22846000      -0.32786000      -0.05824100      -0.13799700
Li       0.46462000       1.34192000      11.87773000      -0.00102800      -0.00276600      -0.03213200
29
Lattice="6.508500099 0.0 0.0 -3.25425005 5.636526426 0.0 0.0 0.0 24.0" Properties=species:S:1:pos:R:3:forces:R:3 stress="-0.008013873023305572 3.102030035563979e-05 -3.719939439026422e-06 3.102030035563979e-05 -0.008041011104984912 -1.8456142485236792e-05 -3.719939439026422e-06 -1.8456142485236792e-05 0.0002976762947407503" free_energy=-261.89928215 energy=-261.89752676 pbc="T T T"
C        0.00000000       0.00000000      13.80018000      -0.06615400      -0.25001900       0.07148900
C       -0.46487000       2.41565000      13.80071000      -0.18547800       0.18226900       0.06974200
C       -0.92980000       4.83129000      13.75211000       0.02887300      -0.09011800       0.06292900
C        1.85958000       1.61041000      13.80093000       0.25204800       0.06458400       0.07119300
C        1.39467000       4.02611000      13.75200000       0.03811800       0.07090100       0.06275100
C        4.18405000       0.80523000      13.75226000      -0.08793900       0.01735100       0.06119600
C        3.71912000       3.22088000      13.73965000      -0.00968800      -0.00568000       0.05245400
C       -2.32448000       4.56294000      13.75845000       0.05467500      -0.07423400       0.06493400
C        0.46490000       1.34206000      13.87092000      -0.00888700       0.00295000       0.12806300
C       -0.00003000       3.75770000      13.75875000       0.00323600       0.14277200       0.06690800
C        2.78935000       0.53682000      13.75914000       0.10247700      -0.07360300       0.07284600
C        2.32448000       2.95247000      13.75930000       0.06059400       0.10163800       0.06964600
C        1.85954000       5.36812000      13.75808000      -0.11623800      -0.08324700       0.07116000
C        4.64892000       2.14723000      13.75930000      -0.07905600      -0.01429600       0.07005500
C        0.00000000       0.00000000      10.22127000      -0.11215800      -0.30825100      -0.10936000
C       -0.46487000       2.41565000      10.21954000      -0.20535800       0.27124200      -0.11257200
C       -0.92980000       4.83129000      10.24721000       0.12059800      -0.16601800      -0.05204000
C        1.85958000       1.61041000      10.21977000       0.34123500       0.05967000      -0.11124000
C        1.39467000       4.02611000      10.24722000       0.06901700       0.18296200      -0.05174200
C        4.18405000       0.80523000      10.24756000      -0.19012500      -0.01149500      -0.05267900
C        3.71912000       3.22088000      10.24993000      -0.00853900      -0.00183800      -0.02817700
C       -1.39467000       3.48929000      10.24672000      -0.12513200       0.16844400      -0.05092900
C        1.39471000       0.26841000      10.21990000       0.21234200      -0.24697800      -0.10127000
C        0.92977000       2.68406000      10.21955000       0.09850500       0.27009000      -0.11172700
C        0.46490000       5.09970000      10.24975000       0.02146700      -0.00069100      -0.02638900
C        3.25428000       1.87882000      10.24754000       0.18280100       0.01665300      -0.05314800
C        2.78935000       4.29447000      10.24713000      -0.06185100      -0.17258800      -0.03850500
C        5.57873000       1.07359000      10.21993000      -0.32830700      -0.05428600      -0.10098900
Li       0.46456000       1.34173000      11.87519000      -0.00107500       0.00181600       0.00540100
29
Lattice="6.508500099 0.0 0.0 -3.25425005 5.636526426 0.0 0.0 0.0 24.0" Properties=species:S:1:pos:R:3:forces:R:3 stress="-0.007924450922059043 8.457244865571815e-06 -2.2344602670662066e-06 8.457244865571815e-06 -0.007949279645361806 -3.400374171781199e-05 -2.2344602670662066e-06 -3.400374171781199e-05 0.0007893262100957003" free_energy=-261.91925412 energy=-261.91749786 pbc="T T T"
C        0.00000000       0.00000000      13.81324000      -0.06404400      -0.24851000       0.05345000
C       -0.46487000       2.41565000      13.81343000      -0.18971500       0.19121000       0.04951600
C       -0.92980000       4.83129000      13.76027000       0.04104300      -0.08944500       0.06421100
C        1.85958000       1.61041000      13.81387000       0.25815100       0.07859700       0.04878800
C        1.39467000       4.02611000      13.76010000       0.03392600       0.06054200       0.06693900
C        4.18405000       0.80523000      13.76029000      -0.09638300       0.02064700       0.07208100
C        3.71912000       3.22088000      13.74557000      -0.00627800      -0.00395300       0.07676000
C       -2.32448000       4.56294000      13.76659000       0.04805200      -0.07724000       0.07417200
C        0.46490000       1.34206000      13.88769000      -0.01560900      -0.00878100       0.01131500
C       -0.00003000       3.75770000      13.76749000       0.00442100       0.13905300       0.08916300
C        2.78935000       0.53682000      13.76837000       0.09285100      -0.06711500       0.07140700
C        2.32448000       2.95247000      13.76815000       0.06709900       0.09941000       0.06970200
C        1.85954000       5.36812000      13.76695000      -0.11542900      -0.07286900       0.07553300
C        4.64892000       2.14723000      13.76819000      -0.07711800      -0.01922400       0.06803900
C        0.00000000       0.00000000      10.20625000      -0.10952200      -0.30432500      -0.09118600
C       -0.46487000       2.41565000      10.20330000      -0.19861400       0.25618400      -0.06509800
C       -0.92980000       4.83129000      10.24060000       0.12799700      -0.16262300      -0.05478900
C        1.85958000       1.61041000      10.20368000       0.32858100       0.05796800      -0.06268500
C        1.39467000       4.02611000      10.24062000       0.06241400       0.17062300      -0.05293300
C        4.18405000       0.80523000      10.24097000      -0.19395100      -0.01030400      -0.05370900
C        3.71912000       3.22088000      10.24684000      -0.00763000      -0.00399000      -0.06058300
C       -1.39467000       3.48929000      10.24028000      -0.12057100       0.16352100      -0.06790500
C        1.39471000       0.26841000      10.20481000       0.21453200      -0.24091500      -0.06771300
C        0.92977000       2.68406000      10.20342000       0.10145700       0.27428100      -0.07057900
C        0.46490000       5.09970000      10.24679000       0.02248200      -0.00044700      -0.07145900
C        3.25428000       1.87882000      10.24089000       0.17845700       0.01654400      -0.06552700
C        2.78935000       4.29447000      10.24200000      -0.06198300      -0.17052000      -0.06057800
C        5.57873000       1.07359000      10.20485000      -0.32746000      -0.05162000      -0.06855800
Li       0.46440000       1.34183000      11.87453000       0.00284300       0.00330100       0.02222400
29
Lattice="6.508500099 0.0 0.0 -3.25425005 5.636526426 0.0 0.0 0.0 24.0" Properties=species:S:1:pos:R:3:forces:R:3 stress="-0.007938656596829553 8.338656192180034e-06 -3.5951092565087566e-06 8.338656192180034e-06 -0.007946932837930475 -4.196166585331314e-05 -3.5951092565087566e-06 -4.196166585331314e-05 0.0009157417359313397" free_energy=-261.92765376 energy=-261.92589357 pbc="T T T"
C        0.00000000       0.00000000      13.81782000      -0.06455800      -0.24895100       0.04883700
C       -0.46487000       2.41565000      13.81768000      -0.18255900       0.19404200       0.04579000
C       -0.92980000       4.83129000      13.76495000       0.04186300      -0.08828500       0.07340000
C        1.85958000       1.61041000      13.81810000       0.26263600       0.07554200       0.04222000
C        1.39467000       4.02611000      13.76493000       0.03359000       0.06001600       0.07448500
C        4.18405000       0.80523000      13.76544000      -0.09681100       0.01973300       0.06465900
C        3.71912000       3.22088000      13.75081000      -0.00835300      -0.00406800       0.07821100
C       -2.32448000       4.56294000      13.77158000       0.05021900      -0.08151000       0.07304300
C        0.46490000       1.34206000      13.88965000      -0.01551800      -0.00818900       0.04098500
C       -0.00003000       3.75770000      13.77350000       0.00439200       0.14186900       0.04751000
C        2.78935000       0.53682000      13.77329000       0.09923300      -0.07324800       0.06339100
C        2.32448000       2.95247000      13.77295000       0.06044700       0.10271400       0.05976000
C        1.85954000       5.36812000      13.77208000      -0.12076200      -0.07234200       0.07462200
C        4.64892000       2.14723000      13.77289000      -0.07252800      -0.01345600       0.06128500
C        0.00000000       0.00000000      10.19958000      -0.10849800      -0.30060900      -0.05472000
C       -0.46487000       2.41565000      10.19799000      -0.19638900       0.25252100      -0.05710900
C       -0.92980000       4.83129000      10.23675000       0.12860900      -0.16200500      -0.06095300
C        1.85958000       1.61041000      10.19851000       0.32348900       0.05726500      -0.05495800
C        1.39467000       4.02611000      10.23688000       0.05921500       0.16850800      -0.06257100
C        4.18405000       0.80523000      10.23720000      -0.19455400      -0.01006400      -0.06591200
C        3.71912000       3.22088000      10.24295000      -0.00339600      -0.01089800      -0.06263900
C       -1.39467000       3.48929000      10.23565000      -0.12039100       0.16623400      -0.05744000
C        1.39471000       0.26841000      10.19939000       0.20656800      -0.23646200      -0.06384000
C        0.92977000       2.68406000      10.19778000       0.10085700       0.27623900      -0.04843800
C        0.46490000       5.09970000      10.24223000       0.02248400       0.00006300      -0.05835600
C        3.25428000       1.87882000      10.23639000       0.17753900       0.01731700      -0.06457900
C        2.78935000       4.29447000      10.23789000      -0.06547500      -0.16666100      -0.06682900
C        5.57873000       1.07359000      10.19937000      -0.32268300      -0.05572300      -0.06409700
Li       0.46456000       1.34203000      11.87579000       0.00133400       0.00041100      -0.00575500
29
Lattice="6.508500099 0.0 0.0 -3.25425005 5.636526426 0.0 0.0 0.0 24.0" Properties=species:S:1:pos:R:3:forces:R:3 stress="-0.007913234930159831 2.9846896639973744e-05 -8.432278829068282e-06 2.9846896639973744e-05 -0.007951751282975655 -3.0645809808086796e-06 -8.432278829068282e-06 -3.0645809808086796e-06 0.0012111398798411428" free_energy=-261.94728076 energy=-261.94550249 pbc="T T T"
C        0.00000000       0.00000000      13.82940000      -0.06362200      -0.24730900       0.04408300
C       -0.46487000       2.41565000      13.82861000      -0.17709600       0.18882900       0.03416500
C       -0.92980000       4.83129000      13.77799000       0.04274200      -0.08822400       0.05808800
C        1.85958000       1.61041000      13.82868000       0.25916700       0.06953100       0.03826500
C        1.39467000       4.02611000      13.77818000       0.03226100       0.06093700       0.05629800
C        4.18405000       0.80523000      13.77787000      -0.09672900       0.02156200       0.06469200
C        3.71912000       3.22088000      13.76422000      -0.00474800      -0.01768100       0.05863600
C       -2.32448000       4.56294000      13.78461000       0.05053300      -0.08847500       0.06367600
C        0.46490000       1.34206000      13.89900000      -0.00844000       0.00104300       0.00780700
C       -0.00003000       3.75770000      13.78471000       0.00443100       0.14198900       0.07611900
C        2.78935000       0.53682000      13.78549000       0.09774800      -0.07482700       0.06633600
C        2.32448000       2.95247000      13.78461000       0.06122200       0.10656800       0.07338300
C        1.85954000       5.36812000      13.78554000      -0.12675900      -0.07019300       0.05820300
C        4.64892000       2.14723000      13.78465000      -0.07059300      -0.01493400       0.07055900
C        0.00000000       0.00000000      10.18560000      -0.10585900      -0.29397400      -0.04361300
C       -0.46487000       2.41565000      10.18441000      -0.19930600       0.26166000      -0.02786300
C       -0.92980000       4.83129000      10.22607000       0.12692000      -0.16135700      -0.07263700
C        1.85958000       1.61041000      10.18528000       0.32336900       0.06722700      -0.03513300
C        1.39467000       4.02611000      10.22611000       0.05674200       0.16789200      -0.06366700
C        4.18405000       0.80523000      10.22605000      -0.19186400      -0.00775800      -0.07211200
C        3.71912000       3.22088000      10.23288000       0.00025300      -0.01250400      -0.07116800
C       -1.39467000       3.48929000      10.22481000      -0.13078700       0.16760200      -0.05658200
C        1.39471000       0.26841000      10.18530000       0.20630700      -0.23820800      -0.04157200
C        0.92977000       2.68406000      10.18490000       0.09688700       0.26382000      -0.03104600
C        0.46490000       5.09970000      10.23216000       0.02594800      -0.00432500      -0.06765100
C        3.25428000       1.87882000      10.22486000       0.17635000       0.01788100      -0.04785900
C        2.78935000       4.29447000      10.22676000      -0.07365100      -0.16829400      -0.06948100
C        5.57873000       1.07359000      10.18521000      -0.31199900      -0.04762600      -0.04574700
Li       0.46478000       1.34224000      11.87606000       0.00057400      -0.00085300      -0.02417900
29
Lattice="6.508500099 0.0 0.0 -3.25425005 5.636526426 0.0 0.0 0.0 24.0" Properties=species:S:1:pos:R:3:forces:R:3 stress="-0.007938569215701791 3.408488133644848e-05 -1.961706318265108e-05 3.408488133644848e-05 -0.007968097795376343 2.8461281614027656e-06 -1.961706318265108e-05 2.8461281614027656e-06 0.0016081809998659544" free_energy=-261.96861818 energy=-261.96681551 pbc="T T T"
C        0.00000000       0.00000000      13.84260000      -0.06454400      -0.24599900       0.02112500
C       -0.46487000       2.41565000      13.84047000      -0.17807200       0.19080500       0.03925600
C       -0.92980000       4.83129000      13.79320000       0.04369400      -0.07828800       0.06294700
C        1.85958000       1.61041000      13.84059000       0.25601400       0.07192900       0.03984500
C        1.39467000       4.02611000      13.79342000       0.03622200       0.05610000       0.06140900
C        4.18405000       0.80523000      13.79314000      -0.09675400       0.01652300       0.06866800
C        3.71912000       3.22088000      13.77975000      -0.00638900      -0.01749900       0.07291800
C       -2.32448000       4.56294000      13.80006000       0.05434900      -0.08287800       0.06061300
C        0.46490000       1.34206000      13.90737000      -0.01414600      -0.00281900       0.00301600
C       -0.00003000       3.75770000      13.79982000       0.00378700       0.14524300       0.05699400
C        2.78935000       0.53682000      13.80053000       0.10461600      -0.07793000       0.05056900
C        2.32448000       2.95247000      13.79976000       0.05674800       0.10703400       0.05350600
C        1.85954000       5.36812000      13.80093000      -0.12502500      -0.07650400       0.05913100
C        4.64892000       2.14723000      13.79964000      -0.07399000      -0.00692300       0.05202900
C        0.00000000       0.00000000      10.17062000      -0.10406000      -0.28594300      -0.03595600
C       -0.46487000       2.41565000      10.17092000      -0.18728800       0.25346400      -0.02564500
C       -0.92980000       4.83129000      10.21177000       0.12718600      -0.15119600      -0.06993800
C        1.85958000       1.61041000      10.17152000       0.31896100       0.05547200      -0.02734400
C        1.39467000       4.02611000      10.21242000       0.06119100       0.16308500      -0.06491900
C        4.18405000       0.80523000      10.21144000      -0.19461000      -0.01596900      -0.06855000