29
Lattice="6.508500099 0.0 0.0 -3.25425005 5.636526426 0.0 0.0 0.0 24.0" Properties=species:S:1:pos:R:3:forces:R:3 stress="-0.007898249066748584 1.7089251986668363e-05 -5.679773304553765e-07 1.7089251986668363e-05 -0.007883956010850311 8.987773141271891e-07 -5.679773304553765e-07 8.987773141271891e-07 -0.008844405676650353" free_energy=-261.04169133 energy=-261.03958134 pbc="T T T"
C        0.00000000       0.00000000      13.65000000      -0.07814000      -0.31719800       0.19904600
C       -0.46487000       2.41565000      13.65000000      -0.22831100       0.22443100       0.20863800
C       -0.92980000       4.83129000      13.65000000       0.04631500      -0.11910300       0.05030200
C        1.85958000       1.61041000      13.65000000       0.31581700       0.08592000       0.21012200
C        1.39467000       4.02611000      13.65000000       0.05908800       0.10451700       0.05029300
C        4.18405000       0.80523000      13.65000000      -0.12089600       0.01493800       0.05155200
C        3.71912000       3.22088000      13.65000000      -0.00834800      -0.00353700       0.03856000
C       -2.32448000       4.56294000      13.65000000       0.06413600      -0.07938300       0.06613300
C        0.46490000       1.34206000      13.65000000      -0.01589800      -0.00082100       4.23161000
C       -0.00003000       3.75770000      13.65000000      -0.00227900       0.18706600       0.05370900
C        2.78935000       0.53682000      13.65000000       0.14224900      -0.08919500       0.05054700
C        2.32448000       2.95247000      13.65000000       0.06609100       0.11807400       0.05997400
C        1.85954000       5.36812000      13.65000000      -0.14640300      -0.11063300       0.05680600
C        4.64892000       2.14723000      13.65000000      -0.09310700      -0.01814900       0.05992300
C        0.00000000       0.00000000      10.35000000      -0.10686200      -0.29562400      -0.23596800
C       -0.46487000       2.41565000      10.35000000      -0.19299500       0.24588100      -0.24670800
C       -0.92980000       4.83129000      10.35000000       0.11369600      -0.16154200      -0.00830000
C        1.85958000       1.61041000      10.35000000       0.32048400       0.04749400      -0.24578000
C        1.39467000       4.02611000      10.35000000       0.07459700       0.18182900      -0.00829900
C        4.18405000       0.80523000      10.35000000      -0.18565000      -0.00980500      -0.00700700
C        3.71912000       3.22088000      10.35000000      -0.00772400      -0.00134500      -0.05355700
C       -1.39467000       3.48929000      10.35000000      -0.11855100       0.16805900      -0.01986300
C        1.39471000       0.26841000      10.35000000       0.18952500      -0.22357800      -0.24565500
C        0.92977000       2.68406000      10.35000000       0.09133700       0.26842200      -0.23931500
C        0.46490000       5.09970000      10.35000000       0.02225100       0.00008700      -0.06445700
C        3.25428000       1.87882000      10.35000000       0.17860700       0.01308800      -0.02298100
C        2.78935000       4.29447000      10.35000000      -0.06311800      -0.16396800      -0.02607300
C        5.57873000       1.07359000      10.35000000      -0.31469800      -0.07267600      -0.24587400
Li       0.46490000       1.34206000      12.00000000      -0.00121500       0.00675100      -3.71738000
29
Lattice="6.508500099 0.0 0.0 -3.25425005 5.636526426 0.0 0.0 0.0 24.0" Properties=species:S:1:pos:R:3:forces:R:3 stress="-0.008186588063837014 1.0417078731099159e-05 -9.986414601413213e-06 1.0417078731099159e-05 -0.008164923785661072 2.858611179654532e-06 -9.986414601413213e-06 2.858611179654532e-06 -0.002771242534910418" free_energy=-261.40082513 energy=-261.39859174 pbc="T T T"
C        0.00000000       0.00000000      13.65960000      -0.00110100      -0.07419700       1.12959100
C       -0.46487000       2.41565000      13.66007000      -0.05874400       0.03690100       1.14965900
C       -0.92980000       4.83129000      13.65243000       0.04138700      -0.09304200       0.03196100
C        1.85958000       1.61041000      13.66014000       0.06769300       0.03160700       1.14822700
C        1.39467000       4.02611000      13.65243000       0.04141000       0.08756600       0.03194300
C        4.18405000       0.80523000      13.65249000      -0.09742000       0.00480600       0.03112700
C        3.71912000       3.22088000      13.65186000      -0.00822300      -0.00373100      -0.23387400
C       -2.32448000       4.56294000      13.65319000       0.06017000      -0.09079500       0.01436700
C        0.46490000       1.34206000      13.85414000      -0.01357100       0.00227900      -1.84280100
C       -0.00003000       3.75770000      13.65259000      -0.00946100       0.17294300      -0.01203800
C        2.78935000       0.53682000      13.65244000       0.13914200      -0.07804100      -0.00004800
C        2.32448000       2.95247000      13.65289000       0.06947000       0.11246900       0.01059400
C        1.85954000       5.36812000      13.65274000      -0.13506300      -0.11243200       0.00766100
C        4.64892000       2.14723000      13.65289000      -0.09777800      -0.00531400       0.01058100
C        0.00000000       0.00000000      10.33862000      -0.16623200      -0.45625300      -0.37462200
C       -0.46487000       2.41565000      10.33810000      -0.30254100       0.37814600      -0.39397700
C       -0.92980000       4.83129000      10.34960000       0.12538700      -0.17495900      -0.05630800
C        1.85958000       1.61041000      10.33814000       0.48807900       0.07683800      -0.39469700
C        1.39467000       4.02611000      10.34960000       0.08020000       0.19895200      -0.05638600
C        4.18405000       0.80523000      10.34966000      -0.20361500      -0.01366400      -0.05717800
C        3.71912000       3.22088000      10.34742000      -0.00655400      -0.00055500      -0.01827200
C       -1.39467000       3.48929000      10.34904000      -0.13155100       0.17575800      -0.04118500
C        1.39471000       0.26841000      10.33815000       0.30399300      -0.35102600      -0.37801200
C        0.92977000       2.68406000      10.33845000       0.15246800       0.43821000      -0.36925100
C        0.46490000       5.09970000      10.34689000       0.01427500      -0.00094000       0.00496400
C        3.25428000       1.87882000      10.34889000       0.19407100       0.01656100      -0.05291400
C        2.78935000       4.29447000      10.34874000      -0.06757500      -0.18238100      -0.04724400
C        5.57873000       1.07359000      10.33814000      -0.48215800      -0.09686500      -0.37827300
Li       0.46484000       1.34238000      11.82066000       0.00384100       0.00115800       1.13640700
29
Lattice="6.508500099 0.0 0.0 -3.25425005 5.636526426 0.0 0.0 0.0 24.0" Properties=species:S:1:pos:R:3:forces:R:3 stress="-0.008002419854059577 -6.4100298722821056e-06 6.978007202737483e-06 -6.4100298722821056e-06 -0.00799225243569351 1.2445569197011217e-05 6.978007202737483e-06 1.2445569197011217e-05 -0.003352707766586828" free_energy=-261.5876192 energy=-261.58553843 pbc="T T T"
C        0.00000000       0.00000000      13.69662000      -0.06362400      -0.24324800       0.26817200
C       -0.46487000       2.41565000      13.69774000      -0.16431800       0.17863700       0.24875600
C       -0.92980000       4.83129000      13.65347000       0.02930600      -0.09049300      -0.01849200
C        1.85958000       1.61041000      13.69776000       0.25405300       0.05088900       0.24888300
C        1.39467000       4.02611000      13.65347000       0.04431200       0.07664600      -0.01762000
C        4.18405000       0.80523000      13.65351000      -0.09043400       0.01349900      -0.01601100
C        3.71912000       3.22088000      13.64420000      -0.01132300      -0.01243000      -0.09852100
C       -2.32448000       4.56294000      13.65366000       0.05491600      -0.06632900       0.19759100
C        0.46490000       1.34206000      13.79376000       0.00156100       0.01165700       0.08210100
C       -0.00003000       3.75770000      13.65220000       0.00606400       0.14078400       0.19000700
C        2.78935000       0.53682000      13.65244000       0.10399700      -0.07525200       0.19424100
C        2.32448000       2.95247000      13.65324000       0.05030300       0.09281300       0.19703100
C        1.85954000       5.36812000      13.65299000      -0.11733500      -0.08128200       0.19380100
C        4.64892000       2.14723000      13.65324000      -0.07735600      -0.01301500       0.19709700
C        0.00000000       0.00000000      10.32634000      -0.14799600      -0.40372500      -0.27114900
C       -0.46487000       2.41565000      10.32519000      -0.27154500       0.33204900      -0.28767100
C       -0.92980000       4.83129000      10.34775000       0.12151600      -0.17105800      -0.08153000
C        1.85958000       1.61041000      10.32521000       0.42714600       0.06953300      -0.28881200
C        1.39467000       4.02611000      10.34775000       0.07809300       0.19459100      -0.08108100
C        4.18405000       0.80523000      10.34779000      -0.19986000      -0.01284200      -0.08475500
C        3.71912000       3.22088000      10.34682000      -0.00729400      -0.00051600      -0.01994100
C       -1.39467000       3.48929000      10.34769000      -0.12882900       0.17122700      -0.07575300
C        1.39471000       0.26841000      10.32576000       0.26426500      -0.31017500      -0.28216500
C        0.92977000       2.68406000      10.32636000       0.13907700       0.39705300      -0.27994300
C        0.46490000       5.09970000      10.34705000       0.01556600       0.00141700      -0.01108800
C        3.25428000       1.87882000      10.34716000       0.18815700       0.01551500      -0.05894200
C        2.78935000       4.29447000      10.34719000      -0.06723100      -0.17934600      -0.07592200
C        5.57873000       1.07359000      10.32574000      -0.42593800      -0.08719100      -0.28215300
Li       0.46497000       1.34242000      11.85790000      -0.00524700       0.00059400       0.31386800
29
Lattice="6.508500099 0.0 0.0 -3.25425005 5.636526426 0.0 0.0 0.0 24.0" Properties=species:S:1:pos:R:3:forces:R:3 stress="-0.007843535997751092 -4.394022424621814e-06 3.115137204728334e-05 -4.394022424621814e-06 -0.007825972391070857 1.2670263525543014e-05 3.115137204728334e-05 1.2670263525543014e-05 -0.002995063052164592" free_energy=-261.63132272 energy=-261.6292697 pbc="T T T"
C        0.00000000       0.00000000      13.70889000      -0.06700500      -0.25101100       0.24915200
C       -0.46487000       2.41565000      13.70896000      -0.17667200       0.18845700       0.22948700
C       -0.92980000       4.83129000      13.65245000       0.02674700      -0.09260900       0.14537200
C        1.85958000       1.61041000      13.70899000       0.26357600       0.06256800       0.22975600
C        1.39467000       4.02611000      13.65249000       0.04587100       0.07663300       0.14536800
C        4.18405000       0.80523000      13.65261000      -0.09254500       0.01534600       0.14727200
C        3.71912000       3.22088000      13.63939000      -0.00855100      -0.01742100       0.12760400
C       -2.32448000       4.56294000      13.66404000       0.05257700      -0.06990800       0.06679200
C        0.46490000       1.34206000      13.80108000      -0.00464400       0.00844700       0.21464500
C       -0.00003000       3.75770000      13.66221000       0.00245600       0.14314400       0.06905600
C        2.78935000       0.53682000      13.66266000       0.11209600      -0.07179300       0.06739800
C        2.32448000       2.95247000      13.66359000       0.05258700       0.08799300       0.06211100
C        1.85954000       5.36812000      13.66318000      -0.12047800      -0.08323700       0.07379200
C        4.64892000       2.14723000      13.66359000      -0.08507800      -0.00747600       0.06241300
C        0.00000000       0.00000000      10.31268000      -0.14086700      -0.38157200      -0.23350600
C       -0.46487000       2.41565000      10.31069000      -0.24412000       0.32708900      -0.21108100
C       -0.92980000       4.83129000      10.34356000       0.11719200      -0.16422100      -0.09412900
C        1.85958000       1.61041000      10.31065000       0.41836400       0.06210400      -0.20837000
C        1.39467000       4.02611000      10.34358000       0.07697500       0.18802100      -0.09334100
C        4.18405000       0.80523000      10.34342000      -0.19681600      -0.01172200      -0.08905500
C        3.71912000       3.22088000      10.34580000      -0.00746500      -0.00062400      -0.04419600
C       -1.39467000       3.48929000      10.34377000      -0.11806900       0.16161900      -0.09153700
C        1.39471000       0.26841000      10.31153000       0.23664700      -0.29430900      -0.21847400
C        0.92977000       2.68406000      10.31223000       0.13269100       0.37588000      -0.23253800
C        0.46490000       5.09970000      10.34646000       0.01178300      -0.00025400      -0.04871700
C        3.25428000       1.87882000      10.34414000       0.18088300       0.01439700      -0.09998000
C        2.78935000       4.29447000      10.34328000      -0.06952300      -0.17369100      -0.08970300
C        5.57873000       1.07359000      10.31151000      -0.39633400      -0.09110700      -0.21996700
Li       0.46469000       1.34245000      11.87257000      -0.00227800      -0.00074300       0.08437700
29
Lattice="6.508500099 0.0 0.0 -3.25425005 5.636526426 0.0 0.0 0.0 24.0" Properties=species:S:1:pos:R:3:forces:R:3 stress="-0.007762852009280799 -2.371773467835638e-07 1.2052354122080573e-05 -2.371773467835638e-07 -0.00778568344966328 1.4605131354566824e-06 1.2052354122080573e-05 1.4605131354566824e-06 -0.0023489357859440316" free_energy=-261.67672969 energy=-261.67470798 pbc="T T T"
C        0.00000000       0.00000000      13.72740000      -0.07052100      -0.26366200       0.14220900
C       -0.46487000       2.41565000      13.72600000      -0.19101200       0.18629700       0.11179200
C       -0.92980000       4.83129000      13.66120000       0.02739700      -0.09469700       0.10691600
C        1.85958000       1.61041000      13.72605000       0.26038000       0.06761100       0.10823100
C        1.39467000       4.02611000      13.66126000       0.04754400       0.07787600       0.10724200
C        4.18405000       0.80523000      13.66152000      -0.09419200       0.01945700       0.10676500
C        3.71912000       3.22088000      13.64610000      -0.01043200      -0.00685500       0.09093500
C       -2.32448000       4.56294000      13.67069000       0.04544500      -0.06367200       0.13911400
C        0.46490000       1.34206000      13.81597000       0.00507200       0.00937600       0.26145300
C       -0.00003000       3.75770000      13.66892000       0.00151500       0.13339500       0.13045100
C        2.78935000       0.53682000      13.66931000       0.11416200      -0.06682000       0.12277800
C        2.32448000       2.95247000      13.66995000       0.03996400       0.07024200       0.12029400
C        1.85954000       5.36812000      13.67022000      -0.11142900      -0.07443800       0.14032700
C        4.64892000       2.14723000      13.66997000      -0.07764600       0.00547400       0.12086500
C        0.00000000       0.00000000      10.29488000      -0.13418200      -0.36546800      -0.18299400
C       -0.46487000       2.41565000      10.29407000      -0.22432700       0.31119700      -0.15965500
C       -0.92980000       4.83129000      10.33670000       0.11332900      -0.16234200      -0.10315400
C        1.85958000       1.61041000      10.29418000       0.40595900       0.05128100      -0.15943700
C        1.39467000       4.02611000      10.33678000       0.07062300       0.18300600      -0.10752400
C        4.18405000       0.80523000      10.33684000      -0.18701700      -0.01055400      -0.10468700
C        3.71912000       3.22088000      10.34281000      -0.00835000      -0.00245400      -0.08603300
C       -1.39467000       3.48929000      10.33715000      -0.11089100       0.15626300      -0.10784900
C        1.39471000       0.26841000      10.29451000       0.22913200      -0.28091900      -0.15102500
C        0.92977000       2.68406000      10.29436000       0.12769200       0.36290500      -0.16615400
C        0.46490000       5.09970000      10.34330000       0.01011900      -0.00092200      -0.08395000
C        3.25428000       1.87882000      10.33722000       0.17485400       0.01438900      -0.10688700
C        2.78935000       4.29447000      10.33677000      -0.06601800      -0.16771000      -0.11233100
C        5.57873000       1.07359000      10.29440000      -0.38254700      -0.08659000      -0.15040700
Li       0.46448000       1.34241000      11.88146000      -0.00462100      -0.00166800      -0.02728300
29
Lattice="6.508500099 0.0 0.0 -3.25425005 5.636526426 0.0 0.0 0.0 24.0" Properties=species:S:1:pos:R:3:forces:R:3 stress="-0.007538051575093862 2.1002678208597162e-05 6.659690237317437e-06 2.1002678208597162e-05 -0.007560109068344732 3.963358294935869e-06 6.659690237317437e-06 3.963358294935869e-06 -0.0012475715686089235" free_energy=-261.74354968 energy=-261.7415864 pbc="T T T"
C        0.00000000       0.00000000      13.75662000      -0.07060900      -0.26920200       0.04390100
C       -0.46487000       2.41565000      13.75119000      -0.18417200       0.18624900       0.07958800
C       -0.92980000       4.83129000      13.67713000       0.02692300      -0.09584500       0.12113700
C        1.85958000       1.61041000      13.75090000       0.26067600       0.06580700       0.07406500
C        1.39467000       4.02611000      13.67723000       0.05129200       0.07837200       0.12025900
C        4.18405000       0.80523000      13.67754000      -0.09111700       0.02283400       0.11448900
C        3.71912000       3.22088000      13.65820000      -0.00912700      -0.00332800       0.14676200
C       -2.32448000       4.56294000      13.68990000       0.03320700      -0.04322700       0.12562500
C        0.46490000       1.34206000      13.84820000      -0.01158000       0.00776500       0.08371900
C       -0.00003000       3.75770000      13.68720000       0.00195800       0.12511800       0.11322800
C        2.78935000       0.53682000      13.68684000       0.11392200      -0.05981400       0.12588900
C        2.32448000       2.95247000      13.68709000       0.03729500       0.05807400       0.11823000
C        1.85954000       5.36812000      13.68975000      -0.08538600      -0.07132100       0.13520000
C        4.64892000       2.14723000      13.68718000      -0.07087300       0.00957100       0.12031900
C        0.00000000       0.00000000      10.26340000      -0.12707800      -0.35155100      -0.05636000
C       -0.46487000       2.41565000      10.26550000      -0.23059100       0.29337600      -0.07079600
C       -0.92980000       4.83129000      10.32163000       0.10598800      -0.15348200      -0.11153300
C        1.85958000       1.61041000      10.26572000       0.37812800       0.05789400      -0.07247600
C        1.39467000       4.02611000      10.32130000       0.06535500       0.17134300      -0.12600100
C        4.18405000       0.80523000      10.32175000      -0.17367500      -0.01064900      -0.10792200
C        3.71912000       3.22088000      10.33224000      -0.00886200      -0.00069300      -0.14002000
C       -1.39467000       3.48929000      10.32181000      -0.09788400       0.12939700      -0.11412700
C        1.39471000       0.26841000      10.26663000       0.23144900      -0.26966100      -0.10079500
C        0.92977000       2.68406000      10.26449000       0.11972100       0.33478500      -0.07641400
C        0.46490000       5.09970000      10.33294000       0.00670100      -0.00159000      -0.13289300
C        3.25428000       1.87882000      10.32187000       0.16370500       0.01382000      -0.12286300
C        2.78935000       4.29447000      10.32103000      -0.05999600      -0.14574700      -0.12616100
C        5.57873000       1.07359000      10.26653000      -0.37135800      -0.07421000      -0.10187400
Li       0.46386000       1.34223000      11.88821000      -0.00401100      -0.00408700      -0.06217500
29
Lattice="6.508500099 0.0 0.0 -3.25425005 5.636526426 0.0 0.0 0.0 24.0" Properties=species:S:1:pos:R:3:forces:R:3 stress="-0.007568778524520585 4.0214043298065835e-05 1.168410508365346e-05 4.0214043298065835e-05 -0.007546564993541567 -1.6159267126911756e-05 1.168410508365346e-05 -1.6159267126911756e-05 -0.0007924968967316491" free_energy=-261.77382876 energy=-261.77190215 pbc="T T T"
C        0.00000000       0.00000000      13.76499000      -0.06697900      -0.26334000       0.07450700
C       -0.46487000       2.41565000      13.76148000      -0.18739300       0.19769900       0.05983900
C       -0.92980000       4.83129000      13.68778000       0.03251700      -0.10480500       0.11705400
C        1.85958000       1.61041000      13.76077000       0.27041600       0.07375000       0.06700700
C        1.39467000       4.02611000      13.68782000       0.04086000       0.07786300       0.11765500
C        4.18405000       0.80523000      13.68774000      -0.09402900       0.03331000       0.11843400
C        3.71912000       3.22088000      13.66982000      -0.00781000      -0.00083500       0.13510400
C       -2.32448000       4.56294000      13.70111000       0.04078900      -0.05662000       0.10008300
C        0.46490000       1.34206000      13.85709000      -0.00814400       0.00966400       0.02783500
C       -0.00003000       3.75770000      13.69744000       0.00281800       0.12343900       0.12940700
C        2.78935000       0.53682000      13.69787000       0.11638900      -0.05984100       0.11575400
C        2.32448000       2.95247000      13.69754000       0.03923100       0.05624500       0.12215900
C        1.85954000       5.36812000      13.70167000      -0.09640200      -0.07745300       0.08746600
C        4.64892000       2.14723000      13.69778000      -0.07204100       0.00897500       0.12275000
C        0.00000000       0.00000000      10.25454000      -0.12338100      -0.34546500      -0.08147100
C       -0.46487000       2.41565000      10.25604000      -0.22773300       0.28535600      -0.07766800
C       -0.92980000       4.83129000      10.31182000       0.11161300      -0.16375400      -0.11235200
C        1.85958000       1.61041000      10.25617000       0.37058300       0.05661400      -0.08294100
C        1.39467000       4.02611000      10.31046000       0.05420200       0.17144800      -0.11210800
C        4.18405000       0.80523000      10.31221000      -0.17493400      -0.00113400      -0.12056200
C        3.71912000       3.22088000      10.32128000      -0.00576900      -0.00103700      -0.12737800
C       -1.39467000       3.48929000      10.31182000      -0.09540900       0.13253200      -0.11657600
C        1.39471000       0.26841000      10.25518000       0.22598300      -0.26350600      -0.05656300
C        0.92977000       2.68406000      10.25444000       0.11556100       0.32351800      -0.06494800
C        0.46490000       5.09970000      10.32249000      -0.00537200      -0.00010000      -0.12475600
C        3.25428000       1.87882000      10.31126000       0.16591100       0.01359400      -0.10331900
C        2.78935000       4.29447000      10.31018000      -0.05468000      -0.14495100      -0.12181900
C        5.57873000       1.07359000      10.25500000      -0.36709900      -0.07647500      -0.05438300
Li       0.46351000       1.34193000      11.88623000       0.00030100      -0.00468800      -0.03820800
29
Lattice="6.508500099 0.0 0.0 -3.25425005 5.636526426 0.0 0.0 0.0 24.0" Properties=species:S:1:pos:R:3:forces:R:3 stress="-0.007598200998539999 3.922788485617628e-05 -1.866211228639094e-06 3.922788485617628e-05 -0.007617793095686147 2.6151923237450855e-06 -1.866211228639094e-06 2.6151923237450855e-06 -0.00020190657871319752" free_energy=-261.82083569 energy=-261.81897301 pbc="T T T"
C        0.00000000       0.00000000      13.78241000      -0.06843500      -0.26483400      -0.00785900
C       -0.46487000       2.41565000      13.77761000      -0.18509900       0.19577700       0.05324900
C       -0.92980000       4.83129000      13.70663000       0.02629900      -0.11096400       0.12190100
C        1.85958000       1.61041000      13.77736000       0.27015400       0.07253800       0.04700000
C        1.39467000       4.02611000      13.70672000       0.03582600       0.08313800       0.11824900
C        4.18405000       0.80523000      13.70657000      -0.08431000       0.03757600       0.11640800
C        3.71912000       3.22088000      13.68988000      -0.01519300      -0.01411300       0.11728000
C       -2.32448000       4.56294000      13.71899000       0.03774400      -0.05338700       0.10711300
C        0.46490000       1.34206000      13.86831000      -0.00461400       0.00955700       0.02613700
C       -0.00003000       3.75770000      13.71757000       0.00365000       0.12646000       0.09992700
C        2.78935000       0.53682000      13.71693000       0.11864800      -0.06912300       0.10364200
C        2.32448000       2.95247000      13.71689000       0.03405600       0.06227600       0.11066000
C        1.85954000       5.36812000      13.71872000      -0.09106000      -0.07146800       0.10566000
C        4.64892000       2.14723000      13.71727000      -0.06916600       0.01326700       0.10658700
C        0.00000000       0.00000000      10.23647000      -0.11915900      -0.33483900      -0.04782600
C       -0.46487000       2.41565000      10.23857000      -0.21991700       0.29088200      -0.05086900
C       -0.92980000       4.83129000      10.29398000       0.10424200      -0.17036100      -0.10631400
C        1.85958000       1.61041000      10.23818000       0.36951900       0.06392300      -0.04495000
C        1.39467000       4.02611000      10.29215000       0.05298500       0.17325100      -0.10498800
C        4.18405000       0.80523000      10.29371000      -0.16950500       0.00432200      -0.09967700
C        3.71912000       3.22088000      10.30254000      -0.01696500      -0.00447400      -0.10603700
C       -1.39467000       3.48929000      10.29349000      -0.09353800       0.13129700      -0.11759000
C        1.39471000       0.26841000      10.23897000       0.22143300      -0.26162700      -0.06019400
C        0.92977000       2.68406000      10.23767000       0.10811500       0.30382200      -0.05512100
C        0.46490000       5.09970000      10.30426000      -0.00506700      -0.00348600      -0.12526000
C        3.25428000       1.87882000      10.29391000       0.16470800       0.01299100      -0.11449700
C        2.78935000       4.29447000      10.29092000      -0.05409400      -0.14708000      -0.09370700
C        5.57873000       1.07359000      10.23895000      -0.35238900      -0.07167900      -0.06346600
Li       0.46328000       1.34132000      11.88436000       0.00113200      -0.00363800      -0.03545600
29
Lattice="6.508500099 0.0 0.0 -3.25425005 5.636526426 0.0 0.0 0.0 24.0" Properties=species:S:1:pos:R:3:forces:R:3 stress="-0.007813158572835419 6.0848472468235885e-05 3.420347000984025e-06 6.0848472468235885e-05 -0.007847043725879839 -3.4609168103022666e-05 3.420347000984025e-06 -3.4609168103022666e-05 0.0003350442098774133" free_energy=-261.87970026 energy=-261.87790891 pbc="T T T"
C        0.00000000       0.00000000      13.79872000      -0.06436700      -0.24844100       0.07154800
C       -0.46487000       2.41565000      13.79981000      -0.18650800       0.18327000       0.04905500
C       -0.92980000       4.83129000      13.73620000       0.02716100      -0.09186000       0.08449900
C        1.85958000       1.61041000      13.79903000       0.25230400       0.06505300       0.05539700
C        1.39467000       4.02611000      13.73591000       0.04461700       0.07358300       0.08735400
C        4.18405000       0.80523000      13.73543000      -0.08574400       0.01947500       0.08725600
C        3.71912000       3.22088000      13.71936000      -0.00918400      -0.00780200       0.11377900
C       -2.32448000       4.56294000      13.74677000       0.05090500      -0.06704800       0.05258200
C        0.46490000       1.34206000      13.88339000      -0.00875200      -0.00651800      -0.03510100
C       -0.00003000       3.75770000      13.74560000       0.00322400       0.13267400       0.09659800
C        2.78935000       0.53682000      13.74485000       0.10344600      -0.06823800       0.09488700
C        2.32448000       2.95247000      13.74556000       0.05292900       0.08531400       0.08224400
C        1.85954000       5.36812000      13.74606000      -0.10857800      -0.07968600       0.06010300
C        4.64892000       2.14723000      13.74562000      -0.07121000      -0.00601000       0.08384400
C        0.00000000       0.00000000      10.21376000      -0.11416200      -0.31807100      -0.02288800
C       -0.46487000       2.41565000      10.21604000      -0.21470300       0.27907000      -0.06491200
C       -0.92980000       4.83129000      10.26707000       0.10851700      -0.15277600      -0.09297700
C        1.85958000       1.61041000      10.21596000       0.34669900       0.07101000      -0.05318300
C        1.39467000       4.02611000      10.26479000       0.06601100       0.17245500      -0.07390400
C        4.18405000       0.80523000      10.26720000      -0.17252800      -0.01198500      -0.08930500