29
Lattice="6.508500099 0.0 0.0 -3.25425005 5.636526426 0.0 0.0 0.0 24.0" Properties=species:S:1:pos:R:3:forces:R:3 stress="-0.008067150545204111 1.7869440627403767e-05 -3.9321507493064526e-07 1.7869440627403767e-05 -0.008055622477848605 5.118037483224272e-07 -3.9321507493064526e-07 5.118037483224272e-07 -0.0013965626329528824" free_energy=-261.73806131 energy=-261.73609531 pbc="T T T"
C        0.00000000       0.00000000      13.80000000      -0.06976400      -0.28406600       0.05476600
C       -0.46487000       2.41565000      13.80000000      -0.21435200       0.20419100       0.05486900
C       -0.92980000       4.83129000      13.80000000       0.05177200      -0.10454900       0.00904300
C        1.85958000       1.61041000      13.80000000       0.28331200       0.07826700       0.05487700
C        1.39467000       4.02611000      13.80000000       0.05644100       0.08772600       0.00906300
C        4.18405000       0.80523000      13.80000000      -0.11482200       0.01354700       0.00905700
C        3.71912000       3.22088000      13.80000000      -0.00737700      -0.00470900      -0.00885800
C       -2.32448000       4.56294000      13.80000000       0.06083600      -0.09982000       0.00679200
C        0.46490000       1.34206000      13.80000000      -0.00307200       0.00886000       2.19450900
C       -0.00003000       3.75770000      13.80000000      -0.01172300       0.18256900      -0.00307100
C        2.78935000       0.53682000      13.80000000       0.14498800      -0.08554000      -0.00305700
C        2.32448000       2.95247000      13.80000000       0.06596800       0.11791500       0.00679300
C        1.85954000       5.36812000      13.80000000      -0.15207500      -0.11023100      -0.00306400
C        4.64892000       2.14723000      13.80000000      -0.08993800      -0.00610200       0.00681900
C        0.00000000       0.00000000      10.20000000      -0.07971400      -0.22065900      -0.07870300
C       -0.46487000       2.41565000      10.20000000      -0.14288200       0.18625700      -0.07887100
C       -0.92980000       4.83129000      10.20000000       0.11106600      -0.15160800       0.03058500
C        1.85958000       1.61041000      10.20000000       0.23957300       0.04432500      -0.07878500
C        1.39467000       4.02611000      10.20000000       0.06776300       0.17196400       0.03057300
C        4.18405000       0.80523000      10.20000000      -0.18345900      -0.01828300       0.03058200
C        3.71912000       3.22088000      10.20000000       0.00272100      -0.00480400      -0.01268200
C       -1.39467000       3.48929000      10.20000000      -0.12390500       0.15654300       0.02044000
C        1.39471000       0.26841000      10.20000000       0.15339300      -0.17417400      -0.08213500
C        0.92977000       2.68406000      10.20000000       0.07547800       0.19553800      -0.08220700
C        0.46490000       5.09970000      10.20000000       0.02029000       0.00702100      -0.02198400
C        3.25428000       1.87882000      10.20000000       0.17320600       0.01671900       0.02044700
C        2.78935000       4.29447000      10.20000000      -0.06996300      -0.17036100       0.02043300
C        5.57873000       1.07359000      10.20000000      -0.24302100      -0.04092400      -0.08215200
Li       0.46490000       1.34206000      12.00000000      -0.00073800       0.00438700      -2.02408000
29
Lattice="6.508500099 0.0 0.0 -3.25425005 5.636526426 0.0 0.0 0.0 24.0" Properties=species:S:1:pos:R:3:forces:R:3 stress="-0.008142772669773314 4.090060930191299e-05 -6.946799657108066e-06 4.090060930191299e-05 -0.008153795174889624 5.018173337210139e-06 -6.946799657108066e-06 5.018173337210139e-06 0.0011074184811872148" free_energy=-261.92274707 energy=-261.9209174 pbc="T T T"
C        0.00000000       0.00000000      13.80264000      -0.04266300      -0.19686700       0.57532200
C       -0.46487000       2.41565000      13.80265000      -0.15117400       0.13960900       0.56527500
C       -0.92980000       4.83129000      13.80044000       0.04699400      -0.08308600      -0.01220700
C        1.85958000       1.61041000      13.80265000       0.19763400       0.05984100       0.56559000
C        1.39467000       4.02611000      13.80044000       0.04008600       0.07512700      -0.01225300
C        4.18405000       0.80523000      13.80044000      -0.09487800       0.00677600      -0.01220500
C        3.71912000       3.22088000      13.79957000      -0.00646300      -0.00555900      -0.14738000
C       -2.32448000       4.56294000      13.80033000       0.06734000      -0.10452700      -0.01865100
C        0.46490000       1.34206000      13.90587000      -0.01448500      -0.00620500      -0.53285800
C       -0.00003000       3.75770000      13.79985000       0.00278200       0.17777000      -0.02084000
C        2.78935000       0.53682000      13.79985000       0.13398400      -0.09473000      -0.02084800
C        2.32448000       2.95247000      13.80033000       0.06783400       0.12604400      -0.01860500
C        1.85954000       5.36812000      13.79985000      -0.15406600      -0.09513100      -0.02088100
C        4.64892000       2.14723000      13.80033000      -0.09693400      -0.00842700      -0.01859600
C        0.00000000       0.00000000      10.19620000      -0.09784900      -0.26917000      -0.13096600
C       -0.46487000       2.41565000      10.19620000      -0.17590200       0.23015300      -0.12116600
C       -0.92980000       4.83129000      10.20148000       0.12088000      -0.16118700      -0.00125200
C        1.85958000       1.61041000      10.19620000       0.29329100       0.05251300      -0.12095800
C        1.39467000       4.02611000      10.20147000       0.07179900       0.18323100      -0.00128000
C        4.18405000       0.80523000      10.20148000      -0.19438700      -0.01931300      -0.00125500
C        3.71912000       3.22088000      10.19939000       0.00204700      -0.00378900       0.01995300
C       -1.39467000       3.48929000      10.20099000      -0.13087100       0.16593300       0.00647900
C        1.39471000       0.26841000      10.19604000       0.19279900      -0.21267100      -0.11968400
C        0.92977000       2.68406000      10.19603000       0.08912600       0.24398100      -0.11561200
C        0.46490000       5.09970000      10.19894000       0.02079300       0.00738500       0.02192200
C        3.25428000       1.87882000      10.20099000       0.18510700       0.01898000       0.00649800
C        2.78935000       4.29447000      10.20099000      -0.07358400      -0.18079100       0.00654400
C        5.57873000       1.07359000      10.19604000      -0.29531700      -0.04463700      -0.11993500
Li       0.46487000       1.34227000      11.90235000      -0.00392100      -0.00125100      -0.20015200
29
Lattice="6.508500099 0.0 0.0 -3.25425005 5.636526426 0.0 0.0 0.0 24.0" Properties=species:S:1:pos:R:3:forces:R:3 stress="-0.008144482843273805 3.840400565155969e-05 1.0548150422742707e-06 3.840400565155969e-05 -0.008133616375885642 -1.4817342664846856e-05 1.0548150422742707e-06 -1.4817342664846856e-05 0.0010138020858080918" free_energy=-261.95519597 energy=-261.9533688 pbc="T T T"
C        0.00000000       0.00000000      13.82556000      -0.06384100      -0.24490100       0.14397500
C       -0.46487000       2.41565000      13.82517000      -0.17847800       0.18819200       0.12332700
C       -0.92980000       4.83129000      13.79995000       0.03895800      -0.08044100      -0.04122700
C        1.85958000       1.61041000      13.82518000       0.25644000       0.07067400       0.12319500
C        1.39467000       4.02611000      13.79995000       0.04089200       0.06483500      -0.04121400
C        4.18405000       0.80523000      13.79995000      -0.08833400       0.01171000      -0.04117600
C        3.71912000       3.22088000      13.79370000      -0.00748900      -0.01042700      -0.08643800
C       -2.32448000       4.56294000      13.79958000       0.06086500      -0.09347600       0.08993400
C        0.46490000       1.34206000      13.88464000      -0.00814500      -0.00830800       0.19936400
C       -0.00003000       3.75770000      13.79902000       0.00219600       0.15788600       0.08730300
C        2.78935000       0.53682000      13.79902000       0.11601900      -0.08588600       0.08783600
C        2.32448000       2.95247000      13.79959000       0.05955400       0.11511500       0.08776100
C        1.85954000       5.36812000      13.79902000      -0.13835600      -0.08575200       0.09002000
C        4.64892000       2.14723000      13.79959000      -0.08533100      -0.01014200       0.08773200
C        0.00000000       0.00000000      10.19099000      -0.09965500      -0.27247300      -0.10147000
C       -0.46487000       2.41565000      10.19137000      -0.18416000       0.24277600      -0.10276200
C       -0.92980000       4.83129000      10.20143000       0.12013900      -0.16200800      -0.01108000
C        1.85958000       1.61041000      10.19138000       0.30235800       0.05856400      -0.10556400
C        1.39467000       4.02611000      10.20142000       0.07072100       0.18302900      -0.01008900
C        4.18405000       0.80523000      10.20143000      -0.19576300      -0.02011500      -0.01135800
C        3.71912000       3.22088000      10.20018000       0.00221000      -0.00505800       0.01479500
C       -1.39467000       3.48929000      10.20124000      -0.13131800       0.16356900      -0.01129400
C        1.39471000       0.26841000      10.19127000       0.19237600      -0.21883500      -0.11306700
C        0.92977000       2.68406000      10.19143000       0.09196800       0.24182600      -0.10505300
C        0.46490000       5.09970000      10.19981000       0.01976500       0.00676300       0.01393200
C        3.25428000       1.87882000      10.20125000       0.18081000       0.02067200      -0.01684800
C        2.78935000       4.29447000      10.20125000      -0.07440100      -0.18161500      -0.01143500
C        5.57873000       1.07359000      10.19126000      -0.29592700      -0.04425100      -0.11345700
Li       0.46471000       1.34222000      11.89438000      -0.00407100      -0.00192200      -0.22564400
29
Lattice="6.508500099 0.0 0.0 -3.25425005 5.636526426 0.0 0.0 0.0 24.0" Properties=species:S:1:pos:R:3:forces:R:3 stress="-0.008140975115145058 4.555053360069602e-05 -7.389946805045778e-06 4.555053360069602e-05 -0.008131968617476408 -7.783161879976424e-06 -7.389946805045778e-06 -7.783161879976424e-06 0.0013129451351934246" free_energy=-261.9681267 energy=-261.96634055 pbc="T T T"
C        0.00000000       0.00000000      13.83651000      -0.06517200      -0.24643500       0.05895900
C       -0.46487000       2.41565000      13.83482000      -0.17945800       0.18911700       0.09593100
C       -0.92980000       4.83129000      13.79739000       0.03652800      -0.07923300       0.07829300
C        1.85958000       1.61041000      13.83482000       0.25622300       0.07096500       0.09630500
C        1.39467000       4.02611000      13.79739000       0.03926200       0.06135500       0.07832100
C        4.18405000       0.80523000      13.79740000      -0.08654700       0.01454200       0.07833300
C        3.71912000       3.22088000      13.78788000      -0.00038800      -0.01730100       0.07324400
C       -2.32448000       4.56294000      13.80499000       0.06055400      -0.09649300       0.02058900
C        0.46490000       1.34206000      13.89476000      -0.01507000      -0.00440300       0.13012900
C       -0.00003000       3.75770000      13.80426000       0.00350800       0.15179300       0.00898300
C        2.78935000       0.53682000      13.80429000       0.10889600      -0.07966200       0.01340000
C        2.32448000       2.95247000      13.80486000       0.06382000       0.11367300       0.00772500
C        1.85954000       5.36812000      13.80442000      -0.13804300      -0.08144600       0.02637000
C        4.64892000       2.14723000      13.80486000      -0.08342200      -0.01281900       0.00777900
C        0.00000000       0.00000000      10.18431000      -0.10142800      -0.27881900      -0.11009000
C       -0.46487000       2.41565000      10.18465000      -0.19005700       0.24934200      -0.09217300
C       -0.92980000       4.83129000      10.20075000       0.12069400      -0.16165000      -0.02403300
C        1.85958000       1.61041000      10.18450000       0.30681100       0.06387000      -0.09235700
C        1.39467000       4.02611000      10.20080000       0.07132600       0.18331500      -0.02072000
C        4.18405000       0.80523000      10.20073000      -0.19511600      -0.02001500      -0.02697800
C        3.71912000       3.22088000      10.20116000       0.00167000      -0.00425600      -0.00433700
C       -1.39467000       3.48929000      10.20058000      -0.13224800       0.16550900      -0.01817600
C        1.39471000       0.26841000      10.18393000       0.19498900      -0.22770500      -0.09486000
C        0.92977000       2.68406000      10.18459000       0.09098600       0.24859100      -0.08967300
C        0.46490000       5.09970000      10.20074000       0.02032000       0.00697600       0.00164100
C        3.25428000       1.87882000      10.20024000       0.18486500       0.01914500      -0.01520400
C        2.78935000       4.29447000      10.20058000      -0.07380400      -0.18179000      -0.01992100
C        5.57873000       1.07359000      10.18390000      -0.29728300      -0.04439500      -0.09391100
Li       0.46445000       1.34210000      11.87988000      -0.00241600      -0.00177100      -0.07357000
29
Lattice="6.508500099 0.0 0.0 -3.25425005 5.636526426 0.0 0.0 0.0 24.0" Properties=species:S:1:pos:R:3:forces:R:3 stress="-0.008144407945164295 4.244850356513204e-05 -7.814369425605839e-06 4.244850356513204e-05 -0.008130676625087352 -1.1759003193164058e-05 -7.814369425605839e-06 -1.1759003193164058e-05 0.0014254545786965961" free_energy=-261.97378822 energy=-261.97200166 pbc="T T T"
C        0.00000000       0.00000000      13.84098000      -0.06596000      -0.24571300       0.04873700
C       -0.46487000       2.41565000      13.84065000      -0.17798100       0.18990000       0.04352500
C       -0.92980000       4.83129000      13.80031000       0.03361200      -0.07720500       0.04061100
C        1.85958000       1.61041000      13.84067000       0.25647400       0.07023600       0.04426300
C        1.39467000       4.02611000      13.80031000       0.03993700       0.06157100       0.04073100
C        4.18405000       0.80523000      13.80032000      -0.08473200       0.01419400       0.04103200
C        3.71912000       3.22088000      13.79003000      -0.00139700      -0.01752900       0.04714600
C       -2.32448000       4.56294000      13.80646000       0.05803500      -0.09554000       0.04858100
C        0.46490000       1.34206000      13.90068000      -0.00984400       0.00084100       0.08463700
C       -0.00003000       3.75770000      13.80523000       0.00268100       0.14737900       0.05538900
C        2.78935000       0.53682000      13.80545000       0.10325800      -0.07747100       0.05391800
C        2.32448000       2.95247000      13.80579000       0.06100500       0.11063700       0.05216200
C        1.85954000       5.36812000      13.80613000      -0.13550900      -0.07841900       0.05218100
C        4.64892000       2.14723000      13.80579000      -0.08015100      -0.01267400       0.05216900
C        0.00000000       0.00000000      10.17880000      -0.10266600      -0.28004700      -0.10035900
C       -0.46487000       2.41565000      10.17989000      -0.18536600       0.25059300      -0.08605200
C       -0.92980000       4.83129000      10.19967000       0.11954200      -0.16085700      -0.02137300
C        1.85958000       1.61041000      10.17970000       0.31325300       0.05601500      -0.08447700
C        1.39467000       4.02611000      10.19987000       0.07122700       0.18418700      -0.02190800
C        4.18405000       0.80523000      10.19953000      -0.19529100      -0.01971100      -0.02249500
C        3.71912000       3.22088000      10.20112000       0.00102900      -0.00394700      -0.00909900
C       -1.39467000       3.48929000      10.19976000      -0.13263700       0.16534900      -0.02778200
C        1.39471000       0.26841000      10.17898000       0.19376800      -0.22509300      -0.08299300
C        0.92977000       2.68406000      10.17992000       0.09055500       0.24562600      -0.07939000
C        0.46490000       5.09970000      10.20095000       0.01971900       0.00726200      -0.01033400
C        3.25428000       1.87882000      10.19950000       0.18362100       0.01939100      -0.02575200
C        2.78935000       4.29447000      10.19968000      -0.07406100      -0.18066500      -0.03243200
C        5.57873000       1.07359000      10.17898000      -0.30198800      -0.04748000      -0.08305100
Li       0.46431000       1.34201000      11.87486000      -0.00013200      -0.00083100      -0.01758500
29
Lattice="6.508500099 0.0 0.0 -3.25425005 5.636526426 0.0 0.0 0.0 24.0" Properties=species:S:1:pos:R:3:forces:R:3 stress="-0.00803410175438256 5.151117481591454e-05 -3.6013507656346402e-06 5.151117481591454e-05 -0.008021537596512156 4.48140355238418e-06 -3.6013507656346402e-06 4.48140355238418e-06 0.0018353532075207275" free_energy=-261.98583466 energy=-261.98402963 pbc="T T T"
C        0.00000000       0.00000000      13.85128000      -0.06403500      -0.24287600       0.03845000
C       -0.46487000       2.41565000      13.85061000      -0.17028200       0.17715500       0.04693400
C       -0.92980000       4.83129000      13.80686000       0.04358700      -0.07704200       0.06169100
C        1.85958000       1.61041000      13.85074000       0.24554800       0.06123800       0.04629400
C        1.39467000       4.02611000      13.80688000       0.03513100       0.05358000       0.06314300
C        4.18405000       0.80523000      13.80693000      -0.09439000       0.01559200       0.06145600
C        3.71912000       3.22088000      13.79674000      -0.00640900      -0.00663300       0.04466400
C       -2.32448000       4.56294000      13.81404000       0.05311400      -0.09232000       0.05031500
C        0.46490000       1.34206000      13.91401000      -0.00704100      -0.00749300      -0.02351500
C       -0.00003000       3.75770000      13.81357000       0.00428500       0.14598600       0.04299100
C        2.78935000       0.53682000      13.81365000       0.10007200      -0.07575000       0.03187100
C        2.32448000       2.95247000      13.81366000       0.06345100       0.11229500       0.03922600
C        1.85954000       5.36812000      13.81430000      -0.12989200      -0.07088200       0.04019100
C        4.64892000       2.14723000      13.81367000      -0.07610500      -0.01418600       0.03875400
C        0.00000000       0.00000000      10.16213000      -0.10123500      -0.27929700      -0.00468300
C       -0.46487000       2.41565000      10.16550000      -0.18489500       0.24970700      -0.04989800
C       -0.92980000       4.83129000      10.19625000       0.11953900      -0.15779600      -0.04636800
C        1.85958000       1.61041000      10.16552000       0.31279400       0.05716300      -0.04961600
C        1.39467000       4.02611000      10.19644000       0.06836900       0.17961300      -0.04333900
C        4.18405000       0.80523000      10.19591000      -0.19117200      -0.01774400      -0.04423300
C        3.71912000       3.22088000      10.19993000       0.00353800      -0.00389200      -0.04023300
C       -1.39467000       3.48929000      10.19556000      -0.12699700       0.16605900      -0.03711400
C        1.39471000       0.26841000      10.16493000       0.18691600      -0.22180200      -0.06354900
C        0.92977000       2.68406000      10.16651000       0.08772400       0.25735200      -0.05080600
C        0.46490000       5.09970000      10.19968000       0.02117900       0.00797000      -0.02898600
C        3.25428000       1.87882000      10.19560000       0.18089100       0.01977100      -0.03257500
C        2.78935000       4.29447000      10.19480000      -0.07412900      -0.17900200      -0.05016600
C        5.57873000       1.07359000      10.16494000      -0.29895800      -0.05551200      -0.06618800
Li       0.46422000       1.34185000      11.86935000      -0.00059700      -0.00125400       0.02528900
29
Lattice="6.508500099 0.0 0.0 -3.25425005 5.636526426 0.0 0.0 0.0 24.0" Properties=species:S:1:pos:R:3:forces:R:3 stress="-0.008041054795548794 4.752909199360101e-05 -7.639607170081109e-06 4.752909199360101e-05 -0.00804730878769293 4.9682412642030735e-06 -7.639607170081109e-06 4.9682412642030735e-06 0.001964446340771371" free_energy=-261.99092546 energy=-261.9891104 pbc="T T T"
C        0.00000000       0.00000000      13.85559000      -0.06383100      -0.24267700       0.02475400
C       -0.46487000       2.41565000      13.85516000      -0.17254200       0.17735600       0.03681200
C       -0.92980000       4.83129000      13.81157000       0.04597500      -0.07574400       0.04969700
C        1.85958000       1.61041000      13.85529000       0.24520200       0.06313400       0.03237900
C        1.39467000       4.02611000      13.81166000       0.03489400       0.05185800       0.04993900
C        4.18405000       0.80523000      13.81164000      -0.09459200       0.01532900       0.04419900
C        3.71912000       3.22088000      13.80075000      -0.00575900      -0.00411300       0.04495400
C       -2.32448000       4.56294000      13.81867000       0.05321700      -0.08872300       0.04519800
C        0.46490000       1.34206000      13.91690000      -0.00803800      -0.00569400      -0.01616100
C       -0.00003000       3.75770000      13.81808000       0.00459800       0.14623200       0.04301300
C        2.78935000       0.53682000      13.81757000       0.09837100      -0.07669800       0.04639700
C        2.32448000       2.95247000      13.81786000       0.06289700       0.11476900       0.04654300
C        1.85954000       5.36812000      13.81859000      -0.12616100      -0.07176900       0.04396400
C        4.64892000       2.14723000      13.81784000      -0.07289600      -0.01373400       0.04584300
C        0.00000000       0.00000000      10.15743000      -0.10012300      -0.27706100      -0.03398400
C       -0.46487000       2.41565000      10.15921000      -0.18297600       0.24747800      -0.03094500
C       -0.92980000       4.83129000      10.19307000       0.12918200      -0.15434600      -0.05056700
C        1.85958000       1.61041000      10.15929000       0.31214600       0.05436200      -0.03002400
C        1.39467000       4.02611000      10.19338000       0.06351800       0.16904400      -0.04952200
C        4.18405000       0.80523000      10.19278000      -0.19576000      -0.01642100      -0.05029600
C        3.71912000       3.22088000      10.19764000       0.00233600      -0.00252100      -0.04530100
C       -1.39467000       3.48929000      10.19258000      -0.12728400       0.16179600      -0.04390000
C        1.39471000       0.26841000      10.15806000       0.18316900      -0.21417200      -0.02948800
C        0.92977000       2.68406000      10.16044000       0.09180400       0.25582700      -0.03546000
C        0.46490000       5.09970000      10.19789000       0.01955900       0.00372000      -0.04026300
C        3.25428000       1.87882000      10.19291000       0.17937500       0.02015200      -0.04374500
C        2.78935000       4.29447000      10.19099000      -0.07529400      -0.17677200      -0.03742400
C        5.57873000       1.07359000      10.15794000      -0.30097300      -0.06056600      -0.03053600
Li       0.46417000       1.34175000      11.86922000      -0.00001400      -0.00004900       0.01392600
29
Lattice="6.508500099 0.0 0.0 -3.25425005 5.636526426 0.0 0.0 0.0 24.0" Properties=species:S:1:pos:R:3:forces:R:3 stress="-0.008115403652256315 3.998310746040816e-05 -6.235267616757375e-06 3.998310746040816e-05 -0.008077904665428008 1.0292248548581494e-05 -6.235267616757375e-06 1.0292248548581494e-05 0.002056102902284966" free_energy=-261.99584826 energy=-261.99401544 pbc="T T T"
C        0.00000000       0.00000000      13.85880000      -0.06430400      -0.24255100       0.02292200
C       -0.46487000       2.41565000      13.85927000      -0.17216800       0.18108300       0.03077000
C       -0.92980000       4.83129000      13.81686000       0.04662600      -0.07423800       0.04741700
C        1.85958000       1.61041000      13.85908000       0.25018600       0.06331300       0.03072200
C        1.39467000       4.02611000      13.81698000       0.03454300       0.05123600       0.04698800
C        4.18405000       0.80523000      13.81653000      -0.09694000       0.01684700       0.04728300
C        3.71912000       3.22088000      13.80574000      -0.00597500      -0.00772200       0.05235000
C       -2.32448000       4.56294000      13.82369000       0.05360500      -0.08780700       0.03345000
C        0.46490000       1.34206000      13.91803000      -0.00845800      -0.00572100       0.01049500
C       -0.00003000       3.75770000      13.82301000       0.00391800       0.14747900       0.04633900
C        2.78935000       0.53682000      13.82264000       0.09567000      -0.07739200       0.04337200
C        2.32448000       2.95247000      13.82295000       0.06394700       0.11918500       0.04241000
C        1.85954000       5.36812000      13.82352000      -0.12643500      -0.07307900       0.03436000
C        4.64892000       2.14723000      13.82287000      -0.07149000      -0.01525900       0.04158000
C        0.00000000       0.00000000      10.15233000      -0.09960500      -0.27413400      -0.02244300
C       -0.46487000       2.41565000      10.15432000      -0.17627500       0.24207700      -0.02801100
C       -0.92980000       4.83129000      10.18837000       0.12957500      -0.15260200      -0.03483800
C        1.85958000       1.61041000      10.15451000       0.30810800       0.04690900      -0.02520600
C        1.39467000       4.02611000      10.18878000       0.06264200       0.16761700      -0.03493300
C        4.18405000       0.80523000      10.18808000      -0.19748600      -0.01647900      -0.03489600
C        3.71912000       3.22088000      10.19370000       0.00252400      -0.00686200      -0.05235500
C       -1.39467000       3.48929000      10.18830000      -0.12447500       0.16559000      -0.04719700
C        1.39471000       0.26841000      10.15323000       0.17661400      -0.20994400      -0.02786600
C        0.92977000       2.68406000      10.15537000       0.08994400       0.25349400      -0.03087900
C        0.46490000       5.09970000      10.19440000       0.02418000       0.00611700      -0.05894300
C        3.25428000       1.87882000      10.18874000       0.17830400       0.02072300      -0.05067600
C        2.78935000       4.29447000      10.18698000      -0.07824400      -0.17444700      -0.04709700
C        5.57873000       1.07359000      10.15301000      -0.29801400      -0.06408900      -0.02826600
Li       0.46416000       1.34171000      11.86994000      -0.00051800       0.00065700      -0.00685500
29
Lattice="6.508500099 0.0 0.0 -3.25425005 5.636526426 0.0 0.0 0.0 24.0" Properties=species:S:1:pos:R:3:forces:R:3 stress="-0.008075988522126362 4.608730338552198e-05 -2.49036214122742e-06 4.608730338552198e-05 -0.008017923762728271 8.994014650397774e-06 -2.49036214122742e-06 8.994014650397774e-06 0.0022053623515213387" free_energy=-262.00081527 energy=-261.99897328 pbc="T T T"
C        0.00000000       0.00000000      13.86233000      -0.06377000      -0.24174400       0.01702200
C       -0.46487000       2.41565000      13.86348000      -0.17106400       0.18001800       0.02678900
C       -0.92980000       4.83129000      13.82219000       0.04245000      -0.08246100       0.05057100
C        1.85958000       1.61041000      13.86319000       0.25009400       0.06222400       0.02721800
C        1.39467000       4.02611000      13.82231000       0.02926900       0.05980000       0.05020900
C        4.18405000       0.80523000      13.82172000      -0.09273100       0.02225900       0.05241100
C        3.71912000       3.22088000      13.81126000       0.00114400      -0.01457800       0.03863400
C       -2.32448000       4.56294000      13.82828000       0.05434900      -0.08742800       0.03793800
C        0.46490000       1.34206000      13.92051000      -0.00856700      -0.00305200       0.01394100
C       -0.00003000       3.75770000      13.82836000       0.00435400       0.14852800       0.03096000
C        2.78935000       0.53682000      13.82781000       0.10112200      -0.07061900       0.04186200
C        2.32448000       2.95247000      13.82807000       0.06834500       0.11299700       0.04186600
C        1.85954000       5.36812000      13.82817000      -0.12596100      -0.07319000       0.03765600
C        4.64892000       2.14723000      13.82793000      -0.07963000      -0.01415300       0.04145700
C        0.00000000       0.00000000      10.14738000      -0.09847300      -0.27189700      -0.01866400
C       -0.46487000       2.41565000      10.14928000      -0.17661800       0.23186900      -0.02787400
C       -0.92980000       4.83129000      10.18433000       0.13151600      -0.15262200      -0.04410800
C        1.85958000       1.61041000      10.14969000       0.29971300       0.04514000      -0.02896900
C        1.39467000       4.02611000      10.18478000       0.06066900       0.16572300      -0.04572900
C        4.18405000       0.80523000      10.18403000      -0.19703800      -0.01677700      -0.04439200