37
Lattice="7.380000114 0.0 0.0 -3.690000057 6.391267579 0.0 0.0 0.0 24.0" Properties=species:S:1:pos:R:3:forces:R:3 stress="-0.006730131909312155 5.227888043839817e-05 -0.0 5.227888043839817e-05 -0.006669770274555739 -0.0 -0.0 -0.0 0.003016533843557631" free_energy=-336.52768855 energy=-336.52603276 pbc="T T T"
C        0.00000000       0.00000000      13.85000000      -0.16160700      -0.09493500       0.05256900
C       -1.22999000       2.13040000      13.85000000      -0.17468800       0.10085600      -0.04389500
C       -2.46001000       4.26087000      13.85000000      -0.00161000      -0.19896800      -0.04297200
C        2.45998000       0.00000000      13.85000000       0.16320200      -0.09422500       0.05380200
C        1.22999000       2.13040000      13.85000000       0.00141300       0.18742300       0.05256900
C       -0.00004000       4.26087000      13.85000000       0.03057000       0.01756200      -0.00075900
C        4.92002000       0.00000000      13.85000000       0.00007600      -0.03525500      -0.00075900
C        3.69004000       2.13040000      13.85000000       0.17150700       0.10087800      -0.04297200
C        2.46001000       4.26087000      13.85000000      -0.02923500       0.01687900      -0.00169100
C        0.00000000       1.42027000      13.85000000      -0.16274900       0.09396300       0.05171500
C       -1.23002000       3.55073000      13.85000000      -0.03061200      -0.01650900       0.00020100
C       -2.46001000       5.68113000      13.85000000      -0.00134000      -0.18781000       0.05369800
C        2.45998000       1.42027000      13.85000000       0.16197800       0.09506500       0.05369800
C        1.22995000       3.55073000      13.85000000       0.00091600       0.19886100      -0.04399300
C       -0.00004000       5.68113000      13.85000000       0.17509900      -0.10109400      -0.04195000
C        4.92002000       1.42027000      13.85000000      -0.00100900       0.03476500       0.00020100
C        3.69000000       3.55073000      13.85000000       0.03005300      -0.01735100       0.00016600
C        2.46001000       5.68113000      13.85000000      -0.17176000      -0.10022400      -0.04399300
C        0.00000000       0.00000000      10.15000000      -0.16160700      -0.09493500      -0.05256900
C       -1.22999000       2.13040000      10.15000000      -0.17468800       0.10085600       0.04389500
C       -2.46001000       4.26087000      10.15000000      -0.00161000      -0.19896800       0.04297200
C        2.45998000       0.00000000      10.15000000       0.16320200      -0.09422500      -0.05380200
C        1.22999000       2.13040000      10.15000000       0.00141300       0.18742300      -0.05256900
C       -0.00004000       4.26087000      10.15000000       0.03057000       0.01756200       0.00075900
C        4.92002000       0.00000000      10.15000000       0.00007600      -0.03525500       0.00075900
C        3.69004000       2.13040000      10.15000000       0.17150700       0.10087800       0.04297200
C        2.46001000       4.26087000      10.15000000      -0.02923500       0.01687900       0.00169100
C        0.00000000       1.42027000      10.15000000      -0.16274900       0.09396300      -0.05171500
C       -1.23002000       3.55073000      10.15000000      -0.03061200      -0.01650900      -0.00020100
C       -2.46001000       5.68113000      10.15000000      -0.00134000      -0.18781000      -0.05369800
C        2.45998000       1.42027000      10.15000000       0.16197800       0.09506500      -0.05369800
C        1.22995000       3.55073000      10.15000000       0.00091600       0.19886100       0.04399300
C       -0.00004000       5.68113000      10.15000000       0.17509900      -0.10109400       0.04195000
C        4.92002000       1.42027000      10.15000000      -0.00100900       0.03476500      -0.00020100
C        3.69000000       3.55073000      10.15000000       0.03005300      -0.01735100      -0.00016600
C        2.46001000       5.68113000      10.15000000      -0.17176000      -0.10022400       0.04399300
Li       1.22995000       0.71016000      12.00000000      -0.00041200       0.00023800       0.00000000
37
Lattice="7.380000114 0.0 0.0 -3.690000057 6.391267579 0.0 0.0 0.0 24.0" Properties=species:S:1:pos:R:3:forces:R:3 stress="-0.006693138484723045 6.026801211952875e-05 -0.0 6.026801211952875e-05 -0.006623545657969447 -0.0 -0.0 -0.0 0.0031277700191991217" free_energy=-336.52953349 energy=-336.5278777 pbc="T T T"
C        0.00000000       0.00000000      13.85254000      -0.16034800      -0.09400000       0.04071900
C       -1.22999000       2.13040000      13.84788000      -0.17274100       0.09973200       0.00228600
C       -2.46001000       4.26087000      13.84793000      -0.00022100      -0.19911400       0.00250400
C        2.45998000       0.00000000      13.85260000       0.16155000      -0.09327100       0.04133700
C        1.22999000       2.13040000      13.85254000       0.00123300       0.18586500       0.04071900
C       -0.00004000       4.26087000      13.84996000       0.03069100       0.01722500      -0.02081700
C        4.92002000       0.00000000      13.84996000       0.00042800      -0.03519200      -0.02081700
C        3.69004000       2.13040000      13.84793000       0.17232700       0.09974800       0.00250400
C        2.46001000       4.26087000      13.84992000      -0.02866900       0.01655200      -0.01783800
C        0.00000000       1.42027000      13.85249000      -0.16204800       0.09355800       0.04130900
C       -1.23002000       3.55073000      13.85001000      -0.02951200      -0.01749800      -0.02951500
C       -2.46001000       5.68113000      13.85259000      -0.00097600      -0.18571500       0.04067900
C        2.45998000       1.42027000      13.85259000       0.16034600       0.09370300       0.04067900
C        1.22995000       3.55073000      13.84788000      -0.00033100       0.19953900       0.00171600
C       -0.00004000       5.68113000      13.84798000       0.17224200      -0.09944400       0.00137200
C        4.92002000       1.42027000      13.85001000       0.00039700       0.03430700      -0.02951500
C        3.69000000       3.55073000      13.85001000       0.02858100      -0.01650100      -0.03064700
C        2.46001000       5.68113000      13.84788000      -0.17297100      -0.09948300       0.00171600
C        0.00000000       0.00000000      10.14746000      -0.16034800      -0.09400000      -0.04071900
C       -1.22999000       2.13040000      10.15212000      -0.17274100       0.09973200      -0.00228600
C       -2.46001000       4.26087000      10.15207000      -0.00022100      -0.19911400      -0.00250400
C        2.45998000       0.00000000      10.14740000       0.16155000      -0.09327100      -0.04133700
C        1.22999000       2.13040000      10.14746000       0.00123300       0.18586500      -0.04071900
C       -0.00004000       4.26087000      10.15004000       0.03069100       0.01722500       0.02081700
C        4.92002000       0.00000000      10.15004000       0.00042800      -0.03519200       0.02081700
C        3.69004000       2.13040000      10.15207000       0.17232700       0.09974800      -0.00250400
C        2.46001000       4.26087000      10.15008000      -0.02866900       0.01655200       0.01783800
C        0.00000000       1.42027000      10.14751000      -0.16204800       0.09355800      -0.04130900
C       -1.23002000       3.55073000      10.14999000      -0.02951200      -0.01749800       0.02951500
C       -2.46001000       5.68113000      10.14741000      -0.00097600      -0.18571500      -0.04067900
C        2.45998000       1.42027000      10.14741000       0.16034600       0.09370300      -0.04067900
C        1.22995000       3.55073000      10.15212000      -0.00033100       0.19953900      -0.00171600
C       -0.00004000       5.68113000      10.15202000       0.17224200      -0.09944400      -0.00137200
C        4.92002000       1.42027000      10.14999000       0.00039700       0.03430700       0.02951500
C        3.69000000       3.55073000      10.14999000       0.02858100      -0.01650100       0.03064700
C        2.46001000       5.68113000      10.15212000      -0.17297100      -0.09948300      -0.00171600
Li       1.22993000       0.71017000      12.00000000       0.00004400      -0.00002600       0.00000000
37
Lattice="7.380000114 0.0 0.0 -3.690000057 6.391267579 0.0 0.0 0.0 24.0" Properties=species:S:1:pos:R:3:forces:R:3 stress="-0.006655976539387536 5.8938570675715604e-05 -0.0 5.8938570675715604e-05 -0.006587919123878905 -0.0 -0.0 -0.0 0.0033481015328519267" free_energy=-336.53038842 energy=-336.52873263 pbc="T T T"
C        0.00000000       0.00000000      13.85434000      -0.15982300      -0.09388900       0.02630900
C       -1.22999000       2.13040000      13.84798000      -0.17249900       0.09959300      -0.00833300
C       -2.46001000       4.26087000      13.84804000      -0.00004700      -0.19914200      -0.00884100
C        2.45998000       0.00000000      13.85443000       0.16136200      -0.09316200       0.02645800
C        1.22999000       2.13040000      13.85434000       0.00139900       0.18535500       0.02630900
C       -0.00004000       4.26087000      13.84904000       0.02970500       0.01707300      -0.01226500
C        4.92002000       0.00000000      13.84904000       0.00006600      -0.03426200      -0.01226500
C        3.69004000       2.13040000      13.84804000       0.17243900       0.09961200      -0.00884100
C        2.46001000       4.26087000      13.84913000      -0.02839800       0.01639600      -0.01404200
C        0.00000000       1.42027000      13.85432000      -0.16154700       0.09326900       0.02670200
C       -1.23002000       3.55073000      13.84870000      -0.02976300      -0.01661600      -0.00612700
C       -2.46001000       5.68113000      13.85439000      -0.00079300      -0.18543200       0.02679600
C        2.45998000       1.42027000      13.85439000       0.16019200       0.09340300       0.02679600
C        1.22995000       3.55073000      13.84795000      -0.00016200       0.19936900      -0.00295700
C       -0.00004000       5.68113000      13.84804000       0.17234400      -0.09950300      -0.00366200
C        4.92002000       1.42027000      13.84870000      -0.00049200       0.03408400      -0.00612700
C        3.69000000       3.55073000      13.84865000       0.02865200      -0.01654200      -0.00477900
C        2.46001000       5.68113000      13.84795000      -0.17273900      -0.09954500      -0.00295700
C        0.00000000       0.00000000      10.14566000      -0.15982300      -0.09388900      -0.02630900
C       -1.22999000       2.13040000      10.15202000      -0.17249900       0.09959300       0.00833300
C       -2.46001000       4.26087000      10.15196000      -0.00004700      -0.19914200       0.00884100
C        2.45998000       0.00000000      10.14557000       0.16136200      -0.09316200      -0.02645800
C        1.22999000       2.13040000      10.14566000       0.00139900       0.18535500      -0.02630900
C       -0.00004000       4.26087000      10.15096000       0.02970500       0.01707300       0.01226500
C        4.92002000       0.00000000      10.15096000       0.00006600      -0.03426200       0.01226500
C        3.69004000       2.13040000      10.15196000       0.17243900       0.09961200       0.00884100
C        2.46001000       4.26087000      10.15087000      -0.02839800       0.01639600       0.01404200
C        0.00000000       1.42027000      10.14568000      -0.16154700       0.09326900      -0.02670200
C       -1.23002000       3.55073000      10.15130000      -0.02976300      -0.01661600       0.00612700
C       -2.46001000       5.68113000      10.14561000      -0.00079300      -0.18543200      -0.02679600
C        2.45998000       1.42027000      10.14561000       0.16019200       0.09340300      -0.02679600
C        1.22995000       3.55073000      10.15205000      -0.00016200       0.19936900       0.00295700
C       -0.00004000       5.68113000      10.15196000       0.17234400      -0.09950300       0.00366200
C        4.92002000       1.42027000      10.15130000      -0.00049200       0.03408400       0.00612700
C        3.69000000       3.55073000      10.15135000       0.02865200      -0.01654200       0.00477900
C        2.46001000       5.68113000      10.15205000      -0.17273900      -0.09954500       0.00295700
Li       1.22993000       0.71017000      12.00000000       0.00021000      -0.00012100      -0.00000000
37
Lattice="7.380000114 0.0 0.0 -3.690000057 6.391267579 0.0 0.0 0.0 24.0" Properties=species:S:1:pos:R:3:forces:R:3 stress="-0.006619276465727342 5.893232916658973e-05 -0.0 5.893232916658973e-05 -0.006551225291727837 -0.0 -0.0 -0.0 0.003499589200846239" free_energy=-336.53108083 energy=-336.52942505 pbc="T T T"
C        0.00000000       0.00000000      13.85760000      -0.15943000      -0.09364800       0.01107600
C       -1.22999000       2.13040000      13.84716000      -0.17212000       0.09937400       0.00222200
C       -2.46001000       4.26087000      13.84717000      -0.00004800      -0.19870500       0.00295900
C        2.45998000       0.00000000      13.85771000       0.16097500      -0.09293900       0.01014700
C        1.22999000       2.13040000      13.85760000       0.00138600       0.18489500       0.01107600
C       -0.00004000       4.26087000      13.84749000       0.02951900       0.01696100      -0.00248500
C        4.92002000       0.00000000      13.84749000       0.00007100      -0.03404500      -0.00248500
C        3.69004000       2.13040000      13.84717000       0.17206000       0.09939400       0.00295900
C        2.46001000       4.26087000      13.84744000      -0.02821100       0.01628800      -0.00132300
C        0.00000000       1.42027000      13.85764000      -0.16117200       0.09305200       0.00736000
C       -1.23002000       3.55073000      13.84766000      -0.02957400      -0.01651000      -0.01203100
C       -2.46001000       5.68113000      13.85771000      -0.00079500      -0.18501100       0.00702100
C        2.45998000       1.42027000      13.85771000       0.15982700       0.09319400       0.00702100
C        1.22995000       3.55073000      13.84767000      -0.00016200       0.19903500      -0.00728800
C       -0.00004000       5.68113000      13.84768000       0.17205100      -0.09933400      -0.00609300
C        4.92002000       1.42027000      13.84766000      -0.00048900       0.03386700      -0.01203100
C        3.69000000       3.55073000      13.84773000       0.02846700      -0.01643500      -0.01347500
C        2.46001000       5.68113000      13.84767000      -0.17245000      -0.09937700      -0.00728800
C        0.00000000       0.00000000      10.14240000      -0.15943000      -0.09364800      -0.01107600
C       -1.22999000       2.13040000      10.15284000      -0.17212000       0.09937400      -0.00222200
C       -2.46001000       4.26087000      10.15283000      -0.00004800      -0.19870500      -0.00295900
C        2.45998000       0.00000000      10.14229000       0.16097500      -0.09293900      -0.01014700
C        1.22999000       2.13040000      10.14240000       0.00138600       0.18489500      -0.01107600
C       -0.00004000       4.26087000      10.15251000       0.02951900       0.01696100       0.00248500
C        4.92002000       0.00000000      10.15251000       0.00007100      -0.03404500       0.00248500
C        3.69004000       2.13040000      10.15283000       0.17206000       0.09939400      -0.00295900
C        2.46001000       4.26087000      10.15256000      -0.02821100       0.01628800       0.00132300
C        0.00000000       1.42027000      10.14236000      -0.16117200       0.09305200      -0.00736000
C       -1.23002000       3.55073000      10.15234000      -0.02957400      -0.01651000       0.01203100
C       -2.46001000       5.68113000      10.14229000      -0.00079500      -0.18501100      -0.00702100
C        2.45998000       1.42027000      10.14229000       0.15982700       0.09319400      -0.00702100
C        1.22995000       3.55073000      10.15233000      -0.00016200       0.19903500       0.00728800
C       -0.00004000       5.68113000      10.15232000       0.17205100      -0.09933400       0.00609300
C        4.92002000       1.42027000      10.15234000      -0.00048900       0.03386700       0.01203100
C        3.69000000       3.55073000      10.15227000       0.02846700      -0.01643500       0.01347500
C        2.46001000       5.68113000      10.15233000      -0.17245000      -0.09937700       0.00728800
Li       1.22996000       0.71015000      12.00000000       0.00019300      -0.00011100      -0.00000000
37
Lattice="7.380000114 0.0 0.0 -3.690000057 6.391267579 0.0 0.0 0.0 24.0" Properties=species:S:1:pos:R:3:forces:R:3 stress="-0.00661982571853042 5.895105369396738e-05 -0.0 5.895105369396738e-05 -0.006551755820003538 -0.0 -0.0 -0.0 0.003511847524769474" free_energy=-336.5312673 energy=-336.52961152 pbc="T T T"
C        0.00000000       0.00000000      13.85882000      -0.15950900      -0.09368900       0.00744000
C       -1.22999000       2.13040000      13.84705000      -0.17200400       0.09930600      -0.00136700
C       -2.46001000       4.26087000      13.84708000      -0.00004700      -0.19857900      -0.00104400
C        2.45998000       0.00000000      13.85890000       0.16105600      -0.09298600       0.00701700
C        1.22999000       2.13040000      13.85882000       0.00138300       0.18498300       0.00744000
C       -0.00004000       4.26087000      13.84703000       0.02943200       0.01691400      -0.00465900
C        4.92002000       0.00000000      13.84703000       0.00006800      -0.03394600      -0.00465900
C        3.69004000       2.13040000      13.84708000       0.17195100       0.09933100      -0.00104400
C        2.46001000       4.26087000      13.84699000      -0.02812600       0.01623900      -0.00406000
C        0.00000000       1.42027000      13.85872000      -0.16123500       0.09308900       0.00844500
C       -1.23002000       3.55073000      13.84694000      -0.02950700      -0.01647000      -0.00650600
C       -2.46001000       5.68113000      13.85877000      -0.00080000      -0.18508900       0.00823300
C        2.45998000       1.42027000      13.85877000       0.15989200       0.09323800       0.00823300
C        1.22995000       3.55073000      13.84732000      -0.00016100       0.19878600      -0.00344800
C       -0.00004000       5.68113000      13.84735000       0.17185300      -0.09921900      -0.00285700
C        4.92002000       1.42027000      13.84694000      -0.00049000       0.03378900      -0.00650600
C        3.69000000       3.55073000      13.84698000       0.02840000      -0.01639700      -0.00737500
C        2.46001000       5.68113000      13.84732000      -0.17223400      -0.09925400      -0.00344800
C        0.00000000       0.00000000      10.14118000      -0.15950900      -0.09368900      -0.00744000
C       -1.22999000       2.13040000      10.15295000      -0.17200400       0.09930600       0.00136700
C       -2.46001000       4.26087000      10.15292000      -0.00004700      -0.19857900       0.00104400
C        2.45998000       0.00000000      10.14110000       0.16105600      -0.09298600      -0.00701700
C        1.22999000       2.13040000      10.14118000       0.00138300       0.18498300      -0.00744000
C       -0.00004000       4.26087000      10.15297000       0.02943200       0.01691400       0.00465900
C        4.92002000       0.00000000      10.15297000       0.00006800      -0.03394600       0.00465900
C        3.69004000       2.13040000      10.15292000       0.17195100       0.09933100       0.00104400
C        2.46001000       4.26087000      10.15301000      -0.02812600       0.01623900       0.00406000
C        0.00000000       1.42027000      10.14128000      -0.16123500       0.09308900      -0.00844500
C       -1.23002000       3.55073000      10.15306000      -0.02950700      -0.01647000       0.00650600
C       -2.46001000       5.68113000      10.14123000      -0.00080000      -0.18508900      -0.00823300
C        2.45998000       1.42027000      10.14123000       0.15989200       0.09323800      -0.00823300
C        1.22995000       3.55073000      10.15268000      -0.00016100       0.19878600       0.00344800
C       -0.00004000       5.68113000      10.15265000       0.17185300      -0.09921900       0.00285700
C        4.92002000       1.42027000      10.15306000      -0.00049000       0.03378900       0.00650600
C        3.69000000       3.55073000      10.15302000       0.02840000      -0.01639700       0.00737500
C        2.46001000       5.68113000      10.15268000      -0.17223400      -0.09925400       0.00344800
Li       1.22997000       0.71015000      12.00000000       0.00015700      -0.00009100       0.00000000
