37
Lattice="7.380000114 0.0 0.0 -3.690000057 6.391267579 0.0 0.0 0.0 24.0" Properties=species:S:1:pos:R:3:forces:R:3 stress="-0.006806284562157058 5.7652819795783656e-05 -0.0 5.7652819795783656e-05 -0.006739718867329512 -0.0 -0.0 -0.0 -6.622241182562137e-06" free_energy=-336.20136925 energy=-336.19581477 pbc="T T T"
C        0.00000000       0.00000000      13.70000000      -0.21016000      -0.12306800       0.21988600
C       -1.22999000       2.13040000      13.70000000      -0.17871400       0.10318000       0.00756000
C       -2.46001000       4.26087000      13.70000000       0.00001900      -0.20666300       0.00767000
C        2.45998000       0.00000000      13.70000000       0.21188200      -0.12233000       0.22004300
C        1.22999000       2.13040000      13.70000000       0.00150000       0.24353800       0.21988600
C       -0.00004000       4.26087000      13.70000000       0.03607400       0.02042500       0.05214400
C        4.92002000       0.00000000      13.70000000       0.00034800      -0.04145400       0.05214400
C        3.69004000       2.13040000      13.70000000       0.17898500       0.10331500       0.00767000
C        2.46001000       4.26087000      13.70000000      -0.03436700       0.01984200       0.05200400
C        0.00000000       1.42027000      13.70000000      -0.21191000       0.12234700       0.21995100
C       -1.23002000       3.55073000      13.70000000      -0.03595700      -0.02016100       0.05207500
C       -2.46001000       5.68113000      13.70000000      -0.00124500      -0.24341100       0.22004000
C        2.45998000       1.42027000      13.70000000       0.21017800       0.12278300       0.22004000
C        1.22995000       3.55073000      13.70000000      -0.00030500       0.20665900       0.00748600
C       -0.00004000       5.68113000      13.70000000       0.17873100      -0.10319100       0.00756900
C        4.92002000       1.42027000      13.70000000      -0.00051800       0.04122100       0.05207500
C        3.69000000       3.55073000      13.70000000       0.03455900      -0.01995300       0.05211800
C        2.46001000       5.68113000      13.70000000      -0.17912500      -0.10306500       0.00748600
C        0.00000000       0.00000000      10.30000000      -0.21016000      -0.12306800      -0.21988600
C       -1.22999000       2.13040000      10.30000000      -0.17871400       0.10318000      -0.00756000
C       -2.46001000       4.26087000      10.30000000       0.00001900      -0.20666300      -0.00767000
C        2.45998000       0.00000000      10.30000000       0.21188200      -0.12233000      -0.22004300
C        1.22999000       2.13040000      10.30000000       0.00150000       0.24353800      -0.21988600
C       -0.00004000       4.26087000      10.30000000       0.03607400       0.02042500      -0.05214400
C        4.92002000       0.00000000      10.30000000       0.00034800      -0.04145400      -0.05214400
C        3.69004000       2.13040000      10.30000000       0.17898500       0.10331500      -0.00767000
C        2.46001000       4.26087000      10.30000000      -0.03436700       0.01984200      -0.05200400
C        0.00000000       1.42027000      10.30000000      -0.21191000       0.12234700      -0.21995100
C       -1.23002000       3.55073000      10.30000000      -0.03595700      -0.02016100      -0.05207500
C       -2.46001000       5.68113000      10.30000000      -0.00124500      -0.24341100      -0.22004000
C        2.45998000       1.42027000      10.30000000       0.21017800       0.12278300      -0.22004000
C        1.22995000       3.55073000      10.30000000      -0.00030500       0.20665900      -0.00748600
C       -0.00004000       5.68113000      10.30000000       0.17873100      -0.10319100      -0.00756900
C        4.92002000       1.42027000      10.30000000      -0.00051800       0.04122100      -0.05207500
C        3.69000000       3.55073000      10.30000000       0.03455900      -0.01995300      -0.05211800
C        2.46001000       5.68113000      10.30000000      -0.17912500      -0.10306500      -0.00748600
Li       1.22995000       0.71016000      12.00000000       0.00005100      -0.00003000      -0.00000000
37
Lattice="7.380000114 0.0 0.0 -3.690000057 6.391267579 0.0 0.0 0.0 24.0" Properties=species:S:1:pos:R:3:forces:R:3 stress="-0.006804118758490375 5.759664621365071e-05 -0.0 5.759664621365071e-05 -0.0067376092372449636 -0.0 -0.0 -0.0 7.881777724165378e-05" free_energy=-336.22916463 energy=-336.22335641 pbc="T T T"
C        0.00000000       0.00000000      13.71061000      -0.20630300      -0.12084700       0.18919800
C       -1.22999000       2.13040000      13.70036000      -0.17859000       0.10310900       0.06763600
C       -2.46001000       4.26087000      13.70037000       0.00001600      -0.20651700       0.06769800
C        2.45998000       0.00000000      13.71062000       0.20805200      -0.12011900       0.18950000
C        1.22999000       2.13040000      13.71061000       0.00150600       0.23908700       0.18919800
C       -0.00004000       4.26087000      13.70252000       0.03541100       0.02004900       0.02458000
C        4.92002000       0.00000000      13.70252000       0.00034300      -0.04069100       0.02458000
C        3.69004000       2.13040000      13.70037000       0.17885700       0.10324500       0.06769800
C        2.46001000       4.26087000      13.70251000      -0.03371100       0.01946300       0.02447100
C        0.00000000       1.42027000      13.71061000      -0.20813100       0.12016500       0.18917400
C       -1.23002000       3.55073000      13.70251000      -0.03531200      -0.01975700       0.02461400
C       -2.46001000       5.68113000      13.71062000      -0.00117100      -0.23902700       0.18933500
C        2.45998000       1.42027000      13.71062000       0.20641900       0.12052700       0.18933500
C        1.22995000       3.55073000      13.70036000      -0.00032400       0.20653200       0.06757100
C       -0.00004000       5.68113000      13.70037000       0.17859000      -0.10310900       0.06773400
C        4.92002000       1.42027000      13.70251000      -0.00054600       0.04045900       0.02461400
C        3.69000000       3.55073000      13.70251000       0.03389000      -0.01956600       0.02455100
C        2.46001000       5.68113000      13.70036000      -0.17902400      -0.10298500       0.06757100
C        0.00000000       0.00000000      10.28939000      -0.20630300      -0.12084700      -0.18919800
C       -1.22999000       2.13040000      10.29964000      -0.17859000       0.10310900      -0.06763600
C       -2.46001000       4.26087000      10.29963000       0.00001600      -0.20651700      -0.06769800
C        2.45998000       0.00000000      10.28938000       0.20805200      -0.12011900      -0.18950000
C        1.22999000       2.13040000      10.28939000       0.00150600       0.23908700      -0.18919800
C       -0.00004000       4.26087000      10.29748000       0.03541100       0.02004900      -0.02458000
C        4.92002000       0.00000000      10.29748000       0.00034300      -0.04069100      -0.02458000
C        3.69004000       2.13040000      10.29963000       0.17885700       0.10324500      -0.06769800
C        2.46001000       4.26087000      10.29749000      -0.03371100       0.01946300      -0.02447100
C        0.00000000       1.42027000      10.28939000      -0.20813100       0.12016500      -0.18917400
C       -1.23002000       3.55073000      10.29749000      -0.03531200      -0.01975700      -0.02461400
C       -2.46001000       5.68113000      10.28938000      -0.00117100      -0.23902700      -0.18933500
C        2.45998000       1.42027000      10.28938000       0.20641900       0.12052700      -0.18933500
C        1.22995000       3.55073000      10.29964000      -0.00032400       0.20653200      -0.06757100
C       -0.00004000       5.68113000      10.29963000       0.17859000      -0.10310900      -0.06773400
C        4.92002000       1.42027000      10.29749000      -0.00054600       0.04045900      -0.02461400
C        3.69000000       3.55073000      10.29749000       0.03389000      -0.01956600      -0.02455100
C        2.46001000       5.68113000      10.29964000      -0.17902400      -0.10298500      -0.06757100
Li       1.22995000       0.71015000      12.00000000       0.00005800      -0.00003400      -0.00000000
37
Lattice="7.380000114 0.0 0.0 -3.690000057 6.391267579 0.0 0.0 0.0 24.0" Properties=species:S:1:pos:R:3:forces:R:3 stress="-0.006629225431274 5.750926508588834e-05 -0.0 5.750926508588834e-05 -0.006562822015683728 -0.0 -0.0 -0.0 0.0004314193522901767" free_energy=-336.26237473 energy=-336.25620565 pbc="T T T"
C        0.00000000       0.00000000      13.72390000      -0.20296000      -0.11894600       0.17036900
C       -1.22999000       2.13040000      13.70512000      -0.17719200       0.10230200       0.07042800
C       -2.46001000       4.26087000      13.70512000       0.00002200      -0.20488600       0.07046200
C        2.45998000       0.00000000      13.72393000       0.20477700      -0.11822800       0.17056300
C        1.22999000       2.13040000      13.72390000       0.00153000       0.23524200       0.17036900
C       -0.00004000       4.26087000      13.70424000       0.03503300       0.01983900       0.05255500
C        4.92002000       0.00000000      13.70424000       0.00033500      -0.04025900       0.05255500
C        3.69004000       2.13040000      13.70512000       0.17744800       0.10242400       0.07046200
C        2.46001000       4.26087000      13.70423000      -0.03334600       0.01925200       0.05239500
C        0.00000000       1.42027000      13.72390000      -0.20490100       0.11830000       0.17045400
C       -1.23002000       3.55073000      13.70424000      -0.03496300      -0.01951900       0.05257600
C       -2.46001000       5.68113000      13.72391000      -0.00105100      -0.23522900       0.17050300
C        2.45998000       1.42027000      13.72391000       0.20318900       0.11852500       0.17050300
C        1.22995000       3.55073000      13.70511000      -0.00036500       0.20496600       0.07024400
C       -0.00004000       5.68113000      13.70512000       0.17716300      -0.10228500       0.07058800
C        4.92002000       1.42027000      13.70424000      -0.00057800       0.04003800       0.05257600
C        3.69000000       3.55073000      13.70424000       0.03350500      -0.01934400       0.05244000
C        2.46001000       5.68113000      13.70511000      -0.17768800      -0.10216700       0.07024400
C        0.00000000       0.00000000      10.27610000      -0.20296000      -0.11894600      -0.17036900
C       -1.22999000       2.13040000      10.29488000      -0.17719200       0.10230200      -0.07042800
C       -2.46001000       4.26087000      10.29488000       0.00002200      -0.20488600      -0.07046200
C        2.45998000       0.00000000      10.27607000       0.20477700      -0.11822800      -0.17056300
C        1.22999000       2.13040000      10.27610000       0.00153000       0.23524200      -0.17036900
C       -0.00004000       4.26087000      10.29576000       0.03503300       0.01983900      -0.05255500
C        4.92002000       0.00000000      10.29576000       0.00033500      -0.04025900      -0.05255500
C        3.69004000       2.13040000      10.29488000       0.17744800       0.10242400      -0.07046200
C        2.46001000       4.26087000      10.29577000      -0.03334600       0.01925200      -0.05239500
C        0.00000000       1.42027000      10.27610000      -0.20490100       0.11830000      -0.17045400
C       -1.23002000       3.55073000      10.29576000      -0.03496300      -0.01951900      -0.05257600
C       -2.46001000       5.68113000      10.27609000      -0.00105100      -0.23522900      -0.17050300
C        2.45998000       1.42027000      10.27609000       0.20318900       0.11852500      -0.17050300
C        1.22995000       3.55073000      10.29489000      -0.00036500       0.20496600      -0.07024400
C       -0.00004000       5.68113000      10.29488000       0.17716300      -0.10228500      -0.07058800
C        4.92002000       1.42027000      10.29576000      -0.00057800       0.04003800      -0.05257600
C        3.69000000       3.55073000      10.29576000       0.03350500      -0.01934400      -0.05244000
C        2.46001000       5.68113000      10.29489000      -0.17768800      -0.10216700      -0.07024400
Li       1.22996000       0.71015000      12.00000000       0.00008300      -0.00004800      -0.00000000
37
Lattice="7.380000114 0.0 0.0 -3.690000057 6.391267579 0.0 0.0 0.0 24.0" Properties=species:S:1:pos:R:3:forces:R:3 stress="-0.006490670170188519 7.048536255859964e-05 -0.0 7.048536255859964e-05 -0.006409280891187 -0.0 -0.0 -0.0 0.0006306920141522515" free_energy=-336.3257651 energy=-336.31928356 pbc="T T T"
C        0.00000000       0.00000000      13.75328000      -0.20038700      -0.11754500       0.08318900
C       -1.22999000       2.13040000      13.71671000      -0.17622700       0.10174500       0.08183600
C       -2.46001000       4.26087000      13.71672000      -0.00239200      -0.19546300       0.08011100
C        2.45998000       0.00000000      13.75335000       0.20237100      -0.11683900       0.08270100
C        1.22999000       2.13040000      13.75328000       0.00160300       0.23231300       0.08318900
C       -0.00004000       4.26087000      13.71153000       0.03397800       0.01918000       0.08161200
C        4.92002000       0.00000000      13.71153000       0.00037900      -0.03901600       0.08161200
C        3.69004000       2.13040000      13.71672000       0.16808000       0.09980300       0.08011100
C        2.46001000       4.26087000      13.71149000      -0.03216000       0.01856700       0.08128300
C        0.00000000       1.42027000      13.75329000      -0.20233300       0.11681700       0.08304400
C       -1.23002000       3.55073000      13.71153000      -0.03378500      -0.01887800       0.08170100
C       -2.46001000       5.68113000      13.75332000      -0.00096000      -0.23240500       0.08287500
C        2.45998000       1.42027000      13.75332000       0.20078900       0.11703400       0.08287500
C        1.22995000       3.55073000      13.71667000       0.00334000       0.19769000       0.08168500
C       -0.00004000       5.68113000      13.71674000       0.17517500      -0.10113800       0.08120500
C        4.92002000       1.42027000      13.71153000      -0.00054400       0.03869700       0.08170100
C        3.69000000       3.55073000      13.71151000       0.03250200      -0.01876500       0.08148600
C        2.46001000       5.68113000      13.71667000      -0.16953500      -0.10173700       0.08168500
C        0.00000000       0.00000000      10.24672000      -0.20038700      -0.11754500      -0.08318900
C       -1.22999000       2.13040000      10.28329000      -0.17622700       0.10174500      -0.08183600
C       -2.46001000       4.26087000      10.28328000      -0.00239200      -0.19546300      -0.08011100
C        2.45998000       0.00000000      10.24665000       0.20237100      -0.11683900      -0.08270100
C        1.22999000       2.13040000      10.24672000       0.00160300       0.23231300      -0.08318900
C       -0.00004000       4.26087000      10.28847000       0.03397800       0.01918000      -0.08161200
C        4.92002000       0.00000000      10.28847000       0.00037900      -0.03901600      -0.08161200
C        3.69004000       2.13040000      10.28328000       0.16808000       0.09980300      -0.08011100
C        2.46001000       4.26087000      10.28851000      -0.03216000       0.01856700      -0.08128300
C        0.00000000       1.42027000      10.24671000      -0.20233300       0.11681700      -0.08304400
C       -1.23002000       3.55073000      10.28847000      -0.03378500      -0.01887800      -0.08170100
C       -2.46001000       5.68113000      10.24668000      -0.00096000      -0.23240500      -0.08287500
C        2.45998000       1.42027000      10.24668000       0.20078900       0.11703400      -0.08287500
C        1.22995000       3.55073000      10.28333000       0.00334000       0.19769000      -0.08168500
C       -0.00004000       5.68113000      10.28326000       0.17517500      -0.10113800      -0.08120500
C        4.92002000       1.42027000      10.28847000      -0.00054400       0.03869700      -0.08170100
C        3.69000000       3.55073000      10.28849000       0.03250200      -0.01876500      -0.08148600
C        2.46001000       5.68113000      10.28333000      -0.16953500      -0.10173700      -0.08168500
Li       1.22997000       0.71014000      12.00000000       0.00021300      -0.00012300      -0.00000000
37
Lattice="7.380000114 0.0 0.0 -3.690000057 6.391267579 0.0 0.0 0.0 24.0" Properties=species:S:1:pos:R:3:forces:R:3 stress="-0.006412301781603929 5.982486497159104e-05 -0.0 5.982486497159104e-05 -0.006343227000107777 -0.0 -0.0 -0.0 0.0006906791583611155" free_energy=-336.32060052 energy=-336.31412804 pbc="T T T"
C        0.00000000       0.00000000      13.74374000      -0.19769100      -0.11531000       0.14175400
C       -1.22999000       2.13040000      13.71950000      -0.17586100       0.10153300       0.07040300
C       -2.46001000       4.26087000      13.71927000      -0.00045900      -0.20230400       0.07280000
C        2.45998000       0.00000000      13.74372000       0.19853300      -0.11462300       0.14188100
C        1.22999000       2.13040000      13.74374000       0.00101600       0.22886100       0.14175400
C       -0.00004000       4.26087000      13.71672000       0.03493600       0.01918000       0.06766900
C        4.92002000       0.00000000      13.71672000       0.00085800      -0.03984500       0.06766900
C        3.69004000       2.13040000      13.71927000       0.17497100       0.10155000       0.07280000
C        2.46001000       4.26087000      13.71666000      -0.03179500       0.01835700       0.07046200
C        0.00000000       1.42027000      13.74372000      -0.19968800       0.11529000       0.14275400
C       -1.23002000       3.55073000      13.71674000      -0.03234300      -0.02025600       0.06711300
C       -2.46001000       5.68113000      13.74372000      -0.00150600      -0.22837700       0.14097000
C        2.45998000       1.42027000      13.74372000       0.19702700       0.11549200       0.14097000
C        1.22995000       3.55073000      13.71947000      -0.00089500       0.20314700       0.07006100
C       -0.00004000       5.68113000      13.71942000       0.17468000      -0.10085200       0.07078000
C        4.92002000       1.42027000      13.71674000       0.00137100       0.03813800       0.06711300
C        3.69000000       3.55073000      13.71670000       0.03350700      -0.01934500       0.06551000
C        2.46001000       5.68113000      13.71947000      -0.17637800      -0.10079900       0.07006100
C        0.00000000       0.00000000      10.25626000      -0.19769100      -0.11531000      -0.14175400
C       -1.22999000       2.13040000      10.28050000      -0.17586100       0.10153300      -0.07040300
C       -2.46001000       4.26087000      10.28073000      -0.00045900      -0.20230400      -0.07280000
C        2.45998000       0.00000000      10.25628000       0.19853300      -0.11462300      -0.14188100
C        1.22999000       2.13040000      10.25626000       0.00101600       0.22886100      -0.14175400
C       -0.00004000       4.26087000      10.28328000       0.03493600       0.01918000      -0.06766900
C        4.92002000       0.00000000      10.28328000       0.00085800      -0.03984500      -0.06766900
C        3.69004000       2.13040000      10.28073000       0.17497100       0.10155000      -0.07280000
C        2.46001000       4.26087000      10.28334000      -0.03179500       0.01835700      -0.07046200
C        0.00000000       1.42027000      10.25628000      -0.19968800       0.11529000      -0.14275400
C       -1.23002000       3.55073000      10.28326000      -0.03234300      -0.02025600      -0.06711300
C       -2.46001000       5.68113000      10.25628000      -0.00150600      -0.22837700      -0.14097000
C        2.45998000       1.42027000      10.25628000       0.19702700       0.11549200      -0.14097000
C        1.22995000       3.55073000      10.28053000      -0.00089500       0.20314700      -0.07006100
C       -0.00004000       5.68113000      10.28058000       0.17468000      -0.10085200      -0.07078000
C        4.92002000       1.42027000      10.28326000       0.00137100       0.03813800      -0.06711300
C        3.69000000       3.55073000      10.28330000       0.03350700      -0.01934500      -0.06551000
C        2.46001000       5.68113000      10.28053000      -0.17637800      -0.10079900      -0.07006100
Li       1.22999000       0.71013000      12.00000000      -0.00056500       0.00032600       0.00000000
37
Lattice="7.380000114 0.0 0.0 -3.690000057 6.391267579 0.0 0.0 0.0 24.0" Properties=species:S:1:pos:R:3:forces:R:3 stress="-0.00667897025900729 5.711605001095769e-05 -0.0 5.711605001095769e-05 -0.0066130162320740815 -0.0 -0.0 -0.0 0.0008123511372610838" free_energy=-336.33677403 energy=-336.33039244 pbc="T T T"
C        0.00000000       0.00000000      13.76253000      -0.20282200      -0.11885400       0.06558200
C       -1.22999000       2.13040000      13.71891000      -0.16624500       0.09598100       0.08760600
C       -2.46001000       4.26087000      13.71888000       0.00008600      -0.19212200       0.08884000
C        2.45998000       0.00000000      13.76262000       0.20463000      -0.11814300       0.06518600
C        1.22999000       2.13040000      13.76253000       0.00152000       0.23507600       0.06558200
C       -0.00004000       4.26087000      13.71194000       0.03343300       0.01895000       0.09642900
C        4.92002000       0.00000000      13.71194000       0.00030500      -0.03842900       0.09642900
C        3.69004000       2.13040000      13.71888000       0.16642600       0.09598600       0.08884000
C        2.46001000       4.26087000      13.71179000      -0.03175900       0.01833600       0.09778000
C        0.00000000       1.42027000      13.76251000      -0.20467000       0.11816600       0.06575400
C       -1.23002000       3.55073000      13.71197000      -0.03336700      -0.01857900       0.09586700
C       -2.46001000       5.68113000      13.76262000      -0.00112200      -0.23509200       0.06425400
C        2.45998000       1.42027000      13.76262000       0.20303500       0.11851800       0.06425400
C        1.22995000       3.55073000      13.71887000      -0.00033500       0.19234400       0.08663700
C       -0.00004000       5.68113000      13.71895000       0.16614800      -0.09592600       0.08753400
C        4.92002000       1.42027000      13.71197000      -0.00059400       0.03818700       0.09586700
C        3.69000000       3.55073000      13.71200000       0.03196900      -0.01845700       0.09388100
C        2.46001000       5.68113000      13.71887000      -0.16674200      -0.09588200       0.08663700
C        0.00000000       0.00000000      10.23747000      -0.20282200      -0.11885400      -0.06558200
C       -1.22999000       2.13040000      10.28109000      -0.16624500       0.09598100      -0.08760600
C       -2.46001000       4.26087000      10.28112000       0.00008600      -0.19212200      -0.08884000
C        2.45998000       0.00000000      10.23738000       0.20463000      -0.11814300      -0.06518600
C        1.22999000       2.13040000      10.23747000       0.00152000       0.23507600      -0.06558200
C       -0.00004000       4.26087000      10.28806000       0.03343300       0.01895000      -0.09642900
C        4.92002000       0.00000000      10.28806000       0.00030500      -0.03842900      -0.09642900
C        3.69004000       2.13040000      10.28112000       0.16642600       0.09598600      -0.08884000
C        2.46001000       4.26087000      10.28821000      -0.03175900       0.01833600      -0.09778000
C        0.00000000       1.42027000      10.23749000      -0.20467000       0.11816600      -0.06575400
C       -1.23002000       3.55073000      10.28803000      -0.03336700      -0.01857900      -0.09586700
C       -2.46001000       5.68113000      10.23738000      -0.00112200      -0.23509200      -0.06425400
C        2.45998000       1.42027000      10.23738000       0.20303500       0.11851800      -0.06425400
C        1.22995000       3.55073000      10.28113000      -0.00033500       0.19234400      -0.08663700
C       -0.00004000       5.68113000      10.28105000       0.16614800      -0.09592600      -0.08753400
C        4.92002000       1.42027000      10.28803000      -0.00059400       0.03818700      -0.09586700
C        3.69000000       3.55073000      10.28800000       0.03196900      -0.01845700      -0.09388100
C        2.46001000       5.68113000      10.28113000      -0.16674200      -0.09588200      -0.08663700
Li       1.22999000       0.71013000      12.00000000       0.00020800      -0.00012000       0.00000000
37
Lattice="7.380000114 0.0 0.0 -3.690000057 6.391267579 0.0 0.0 0.0 24.0" Properties=species:S:1:pos:R:3:forces:R:3 stress="-0.0066677542671080775 5.702242737406945e-05 -0.0 5.702242737406945e-05 -0.006601906345830009 -0.0 -0.0 -0.0 0.0007899503610082887" free_energy=-336.35043242 energy=-336.34426125 pbc="T T T"
C        0.00000000       0.00000000      13.76744000      -0.20163600      -0.11815000       0.05569600
C       -1.22999000       2.13040000      13.72316000      -0.16556900       0.09559100       0.09651400
C       -2.46001000       4.26087000      13.72321000       0.00010500      -0.19144800       0.09594900
C        2.45998000       0.00000000      13.76752000       0.20339600      -0.11743100       0.05559500
C        1.22999000       2.13040000      13.76744000       0.00150300       0.23369700       0.05569600
C       -0.00004000       4.26087000      13.71620000       0.03322700       0.01887800       0.10257500
C        4.92002000       0.00000000      13.71620000       0.00026500      -0.03821400       0.10257500
C        3.69004000       2.13040000      13.72321000       0.16585100       0.09563300       0.09594900
C        2.46001000       4.26087000      13.71610000      -0.03157200       0.01822800       0.10232300
C        0.00000000       1.42027000      13.76742000      -0.20340000       0.11743300       0.05638100
C       -1.23002000       3.55073000      13.71620000      -0.03319100      -0.01845700       0.10319300
C       -2.46001000       5.68113000      13.76747000      -0.00116000      -0.23362100       0.05611100
C        2.45998000       1.42027000      13.76747000       0.20174100       0.11781500       0.05611100
C        1.22995000       3.55073000      13.72308000      -0.00030100       0.19151900       0.09686000
C       -0.00004000       5.68113000      13.72322000       0.16546600      -0.09553200       0.09676600
C        4.92002000       1.42027000      13.71620000      -0.00061200       0.03797300       0.10319300
C        3.69000000       3.55073000      13.71614000       0.03182400      -0.01837300       0.10308400
C        2.46001000       5.68113000      13.72308000      -0.16601100      -0.09549900       0.09686000
C        0.00000000       0.00000000      10.23256000      -0.20163600      -0.11815000      -0.05569600
C       -1.22999000       2.13040000      10.27684000      -0.16556900       0.09559100      -0.09651400
C       -2.46001000       4.26087000      10.27679000       0.00010500      -0.19144800      -0.09594900
C        2.45998000       0.00000000      10.23248000       0.20339600      -0.11743100      -0.05559500
C        1.22999000       2.13040000      10.23256000       0.00150300       0.23369700      -0.05569600
C       -0.00004000       4.26087000      10.28380000       0.03322700       0.01887800      -0.10257500
C        4.92002000       0.00000000      10.28380000       0.00026500      -0.03821400      -0.10257500
C        3.69004000       2.13040000      10.27679000       0.16585100       0.09563300      -0.09594900
C        2.46001000       4.26087000      10.28390000      -0.03157200       0.01822800      -0.10232300
C        0.00000000       1.42027000      10.23258000      -0.20340000       0.11743300      -0.05638100
C       -1.23002000       3.55073000      10.28380000      -0.03319100      -0.01845700      -0.10319300
C       -2.46001000       5.68113000      10.23253000      -0.00116000      -0.23362100      -0.05611100
C        2.45998000       1.42027000      10.23253000       0.20174100       0.11781500      -0.05611100
C        1.22995000       3.55073000      10.27692000      -0.00030100       0.19151900      -0.09686000
C       -0.00004000       5.68113000      10.27678000       0.16546600      -0.09553200      -0.09676600
C        4.92002000       1.42027000      10.28380000      -0.00061200       0.03797300      -0.10319300
C        3.69000000       3.55073000      10.28386000       0.03182400      -0.01837300      -0.10308400
C        2.46001000       5.68113000      10.27692000      -0.16601100      -0.09549900      -0.09686000
Li       1.23001000       0.71012000      12.00000000       0.00014900      -0.00008600      -0.00000000
37
Lattice="7.380000114 0.0 0.0 -3.690000057 6.391267579 0.0 0.0 0.0 24.0" Properties=species:S:1:pos:R:3:forces:R:3 stress="-0.006023081272513848 5.5980095350046946e-05 -0.0 5.5980095350046946e-05 -0.005958437962497075 -0.0 -0.0 -0.0 -0.0009425927081908897" free_energy=-336.12689658 energy=-336.12162064 pbc="T T T"
C        0.00000000       0.00000000      13.73072000      -0.26630300      -0.15524700      -0.00057500
C       -1.22999000       2.13040000      13.64452000      -0.13059400       0.07539800       0.14325800