37
Lattice="7.380000114 0.0 0.0 -3.690000057 6.391267579 0.0 0.0 0.0 24.0" Properties=species:S:1:pos:R:3:forces:R:3 stress="-0.007616844386299013 5.88699140753309e-05 -0.0 5.88699140753309e-05 -0.007548874351918144 -0.0 -0.0 -0.0 0.005807724241634372" free_energy=-336.49759772 energy=-336.49576901 pbc="T T T"
C        0.00000000       0.00000000      14.00000000      -0.13267400      -0.07821700      -0.02750800
C       -1.22999000       2.13040000      14.00000000      -0.16546700       0.09553200      -0.04368300
C       -2.46001000       4.26087000      14.00000000      -0.00004800      -0.19109000      -0.04372000
C        2.45998000       0.00000000      14.00000000       0.13425200      -0.07751100      -0.02789000
C        1.22999000       2.13040000      14.00000000       0.00140100       0.15400700      -0.02750800
C       -0.00004000       4.26087000      14.00000000       0.02581000       0.01477400      -0.00491200
C        4.92002000       0.00000000      14.00000000       0.00011000      -0.02973900      -0.00491200
C        3.69004000       2.13040000      14.00000000       0.16546500       0.09558700      -0.04372000
C        2.46001000       4.26087000      14.00000000      -0.02444300       0.01411200      -0.00485800
C        0.00000000       1.42027000      14.00000000      -0.13431000       0.07754400      -0.02752300
C       -1.23002000       3.55073000      14.00000000      -0.02579900      -0.01433200      -0.00490600
C       -2.46001000       5.68113000      14.00000000      -0.00092600      -0.15403100      -0.02772600
C        2.45998000       1.42027000      14.00000000       0.13293200       0.07781800      -0.02772600
C        1.22995000       3.55073000      14.00000000      -0.00019800       0.19125400      -0.04355700
C       -0.00004000       5.68113000      14.00000000       0.16541300      -0.09550100      -0.04373400
C        4.92002000       1.42027000      14.00000000      -0.00048800       0.02950800      -0.00490600
C        3.69000000       3.55073000      14.00000000       0.02469300      -0.01425700      -0.00489100
C        2.46001000       5.68113000      14.00000000      -0.16573000      -0.09545500      -0.04355700
C        0.00000000       0.00000000      10.00000000      -0.13267400      -0.07821700       0.02750800
C       -1.22999000       2.13040000      10.00000000      -0.16546700       0.09553200       0.04368300
C       -2.46001000       4.26087000      10.00000000      -0.00004800      -0.19109000       0.04372000
C        2.45998000       0.00000000      10.00000000       0.13425200      -0.07751100       0.02789000
C        1.22999000       2.13040000      10.00000000       0.00140100       0.15400700       0.02750800
C       -0.00004000       4.26087000      10.00000000       0.02581000       0.01477400       0.00491200
C        4.92002000       0.00000000      10.00000000       0.00011000      -0.02973900       0.00491200
C        3.69004000       2.13040000      10.00000000       0.16546500       0.09558700       0.04372000
C        2.46001000       4.26087000      10.00000000      -0.02444300       0.01411200       0.00485800
C        0.00000000       1.42027000      10.00000000      -0.13431000       0.07754400       0.02752300
C       -1.23002000       3.55073000      10.00000000      -0.02579900      -0.01433200       0.00490600
C       -2.46001000       5.68113000      10.00000000      -0.00092600      -0.15403100       0.02772600
C        2.45998000       1.42027000      10.00000000       0.13293200       0.07781800       0.02772600
C        1.22995000       3.55073000      10.00000000      -0.00019800       0.19125400       0.04355700
C       -0.00004000       5.68113000      10.00000000       0.16541300      -0.09550100       0.04373400
C        4.92002000       1.42027000      10.00000000      -0.00048800       0.02950800       0.00490600
C        3.69000000       3.55073000      10.00000000       0.02469300      -0.01425700       0.00489100
C        2.46001000       5.68113000      10.00000000      -0.16573000      -0.09545500       0.04355700
Li       1.22995000       0.71016000      12.00000000       0.00001000      -0.00000600      -0.00000000
37
Lattice="7.380000114 0.0 0.0 -3.690000057 6.391267579 0.0 0.0 0.0 24.0" Properties=species:S:1:pos:R:3:forces:R:3 stress="-0.007615889435402753 5.8863672566205015e-05 -0.0 5.8863672566205015e-05 -0.007547919401021883 -0.0 -0.0 -0.0 0.005794473517760122" free_energy=-336.49897864 energy=-336.49714384 pbc="T T T"
C        0.00000000       0.00000000      13.99867000      -0.13300100      -0.07840900      -0.03274700
C       -1.22999000       2.13040000      13.99789000      -0.16553500       0.09557200      -0.02277300
C       -2.46001000       4.26087000      13.99789000      -0.00004200      -0.19116300      -0.02282700
C        2.45998000       0.00000000      13.99865000       0.13458700      -0.07770400      -0.03301700
C        1.22999000       2.13040000      13.99867000       0.00140300       0.15438600      -0.03274700
C       -0.00004000       4.26087000      13.99976000       0.02579100       0.01476800      -0.02596100
C        4.92002000       0.00000000      13.99976000       0.00010600      -0.02972000      -0.02596100
C        3.69004000       2.13040000      13.99789000       0.16553100       0.09561800      -0.02282700
C        2.46001000       4.26087000      13.99977000      -0.02442600       0.01410200      -0.02590800
C        0.00000000       1.42027000      13.99867000      -0.13464600       0.07773800      -0.03273300
C       -1.23002000       3.55073000      13.99976000      -0.02578500      -0.01432100      -0.02601500
C       -2.46001000       5.68113000      13.99866000      -0.00091500      -0.15441700      -0.03291900
C        2.45998000       1.42027000      13.99866000       0.13327100       0.07800100      -0.03291900
C        1.22995000       3.55073000      13.99790000      -0.00019200       0.19133800      -0.02270900
C       -0.00004000       5.68113000      13.99789000       0.16546200      -0.09553000      -0.02291800
C        4.92002000       1.42027000      13.99976000      -0.00049000       0.02949100      -0.02601500
C        3.69000000       3.55073000      13.99976000       0.02467700      -0.01424700      -0.02597600
C        2.46001000       5.68113000      13.99790000      -0.16579900      -0.09550300      -0.02270900
C        0.00000000       0.00000000      10.00133000      -0.13300100      -0.07840900       0.03274700
C       -1.22999000       2.13040000      10.00211000      -0.16553500       0.09557200       0.02277300
C       -2.46001000       4.26087000      10.00211000      -0.00004200      -0.19116300       0.02282700
C        2.45998000       0.00000000      10.00135000       0.13458700      -0.07770400       0.03301700
C        1.22999000       2.13040000      10.00133000       0.00140300       0.15438600       0.03274700
C       -0.00004000       4.26087000      10.00024000       0.02579100       0.01476800       0.02596100
C        4.92002000       0.00000000      10.00024000       0.00010600      -0.02972000       0.02596100
C        3.69004000       2.13040000      10.00211000       0.16553100       0.09561800       0.02282700
C        2.46001000       4.26087000      10.00023000      -0.02442600       0.01410200       0.02590800
C        0.00000000       1.42027000      10.00133000      -0.13464600       0.07773800       0.03273300
C       -1.23002000       3.55073000      10.00024000      -0.02578500      -0.01432100       0.02601500
C       -2.46001000       5.68113000      10.00134000      -0.00091500      -0.15441700       0.03291900
C        2.45998000       1.42027000      10.00134000       0.13327100       0.07800100       0.03291900
C        1.22995000       3.55073000      10.00210000      -0.00019200       0.19133800       0.02270900
C       -0.00004000       5.68113000      10.00211000       0.16546200      -0.09553000       0.02291800
C        4.92002000       1.42027000      10.00024000      -0.00049000       0.02949100       0.02601500
C        3.69000000       3.55073000      10.00024000       0.02467700      -0.01424700       0.02597600
C        2.46001000       5.68113000      10.00210000      -0.16579900      -0.09550300       0.02270900
Li       1.22995000       0.71015000      12.00000000       0.00000400      -0.00000200       0.00000000
37
Lattice="7.380000114 0.0 0.0 -3.690000057 6.391267579 0.0 0.0 0.0 24.0" Properties=species:S:1:pos:R:3:forces:R:3 stress="-0.007614347782648658 5.8863672566205015e-05 -0.0 5.8863672566205015e-05 -0.0075463777482677906 -0.0 -0.0 -0.0 0.0057814100391596485" free_energy=-336.49997808 energy=-336.49813819 pbc="T T T"
C        0.00000000       0.00000000      13.99752000      -0.13313100      -0.07848500      -0.03361900
C       -1.22999000       2.13040000      13.99709000      -0.16559200       0.09560400      -0.02685200
C       -2.46001000       4.26087000      13.99708000      -0.00003900      -0.19122700      -0.02691800
C        2.45998000       0.00000000      13.99749000       0.13472300      -0.07778200      -0.03386000
C        1.22999000       2.13040000      13.99752000       0.00140500       0.15453800      -0.03361900
C       -0.00004000       4.26087000      13.99885000       0.02583800       0.01480200      -0.02614300
C        4.92002000       0.00000000      13.99885000       0.00010000      -0.02977800      -0.02614300
C        3.69004000       2.13040000      13.99708000       0.16558800       0.09564800      -0.02691800
C        2.46001000       4.26087000      13.99885000      -0.02447700       0.01413200      -0.02607700
C        0.00000000       1.42027000      13.99752000      -0.13478500       0.07781800      -0.03360200
C       -1.23002000       3.55073000      13.99884000      -0.02584100      -0.01435000      -0.02617100
C       -2.46001000       5.68113000      13.99750000      -0.00090500      -0.15457500      -0.03375800
C        2.45998000       1.42027000      13.99750000       0.13341300       0.07807100      -0.03375800
C        1.22995000       3.55073000      13.99710000      -0.00018900       0.19140600      -0.02679000
C       -0.00004000       5.68113000      13.99708000       0.16551200      -0.09555900      -0.02698500
C        4.92002000       1.42027000      13.99884000      -0.00049300       0.02955400      -0.02617100
C        3.69000000       3.55073000      13.99885000       0.02472900      -0.01427700      -0.02613000
C        2.46001000       5.68113000      13.99710000      -0.16585700      -0.09553900      -0.02679000
C        0.00000000       0.00000000      10.00248000      -0.13313100      -0.07848500       0.03361900
C       -1.22999000       2.13040000      10.00291000      -0.16559200       0.09560400       0.02685200
C       -2.46001000       4.26087000      10.00292000      -0.00003900      -0.19122700       0.02691800
C        2.45998000       0.00000000      10.00251000       0.13472300      -0.07778200       0.03386000
C        1.22999000       2.13040000      10.00248000       0.00140500       0.15453800       0.03361900
C       -0.00004000       4.26087000      10.00115000       0.02583800       0.01480200       0.02614300
C        4.92002000       0.00000000      10.00115000       0.00010000      -0.02977800       0.02614300
C        3.69004000       2.13040000      10.00292000       0.16558800       0.09564800       0.02691800
C        2.46001000       4.26087000      10.00115000      -0.02447700       0.01413200       0.02607700
C        0.00000000       1.42027000      10.00248000      -0.13478500       0.07781800       0.03360200
C       -1.23002000       3.55073000      10.00116000      -0.02584100      -0.01435000       0.02617100
C       -2.46001000       5.68113000      10.00250000      -0.00090500      -0.15457500       0.03375800
C        2.45998000       1.42027000      10.00250000       0.13341300       0.07807100       0.03375800
C        1.22995000       3.55073000      10.00290000      -0.00018900       0.19140600       0.02679000
C       -0.00004000       5.68113000      10.00292000       0.16551200      -0.09555900       0.02698500
C        4.92002000       1.42027000      10.00116000      -0.00049300       0.02955400       0.02617100
C        3.69000000       3.55073000      10.00115000       0.02472900      -0.01427700       0.02613000
C        2.46001000       5.68113000      10.00290000      -0.16585700      -0.09553900       0.02679000
Li       1.22995000       0.71015000      12.00000000       0.00000100      -0.00000100       0.00000000
37
Lattice="7.380000114 0.0 0.0 -3.690000057 6.391267579 0.0 0.0 0.0 24.0" Properties=species:S:1:pos:R:3:forces:R:3 stress="-0.007622561608658322 5.8863672566205015e-05 -0.0 5.8863672566205015e-05 -0.007554591574277452 -0.0 -0.0 -0.0 0.00586194423141092" free_energy=-336.49388121 energy=-336.49208383 pbc="T T T"
C        0.00000000       0.00000000      14.00573000      -0.13207200      -0.07785700      -0.02465800
C       -1.22999000       2.13040000      14.00401000      -0.16512300       0.09533400      -0.01681200
C       -2.46001000       4.26087000      14.00402000      -0.00005900      -0.19071600      -0.01692600
C        2.45998000       0.00000000      14.00576000       0.13361400      -0.07714200      -0.02502100
C        1.22999000       2.13040000      14.00573000       0.00139000       0.15330600      -0.02465800
C       -0.00004000       4.26087000      14.00518000       0.02558200       0.01460200      -0.00967000
C        4.92002000       0.00000000      14.00518000       0.00014500      -0.02945600      -0.00967000
C        3.69004000       2.13040000      14.00402000       0.16513500       0.09540900      -0.01692600
C        2.46001000       4.26087000      14.00517000      -0.02419400       0.01396800      -0.00962600
C        0.00000000       1.42027000      14.00572000      -0.13367100       0.07717500      -0.02457100
C       -1.23002000       3.55073000      14.00518000      -0.02552600      -0.01419800      -0.00967200
C       -2.46001000       5.68113000      14.00574000      -0.00098100      -0.15330400      -0.02479700
C        2.45998000       1.42027000      14.00574000       0.13227500       0.07750200      -0.02479700
C        1.22995000       3.55073000      14.00400000      -0.00020800       0.19085700      -0.01666700
C       -0.00004000       5.68113000      14.00403000       0.16511000      -0.09532600      -0.01694100
C        4.92002000       1.42027000      14.00518000      -0.00046700       0.02920500      -0.00967200
C        3.69000000       3.55073000      14.00517000       0.02443300      -0.01410700      -0.00961000
C        2.46001000       5.68113000      14.00400000      -0.16539100      -0.09524800      -0.01666700
C        0.00000000       0.00000000       9.99427000      -0.13207200      -0.07785700       0.02465800
C       -1.22999000       2.13040000       9.99599000      -0.16512300       0.09533400       0.01681200
C       -2.46001000       4.26087000       9.99598000      -0.00005900      -0.19071600       0.01692600
C        2.45998000       0.00000000       9.99424000       0.13361400      -0.07714200       0.02502100
C        1.22999000       2.13040000       9.99427000       0.00139000       0.15330600       0.02465800
C       -0.00004000       4.26087000       9.99482000       0.02558200       0.01460200       0.00967000
C        4.92002000       0.00000000       9.99482000       0.00014500      -0.02945600       0.00967000
C        3.69004000       2.13040000       9.99598000       0.16513500       0.09540900       0.01692600
C        2.46001000       4.26087000       9.99483000      -0.02419400       0.01396800       0.00962600
C        0.00000000       1.42027000       9.99428000      -0.13367100       0.07717500       0.02457100
C       -1.23002000       3.55073000       9.99482000      -0.02552600      -0.01419800       0.00967200
C       -2.46001000       5.68113000       9.99426000      -0.00098100      -0.15330400       0.02479700
C        2.45998000       1.42027000       9.99426000       0.13227500       0.07750200       0.02479700
C        1.22995000       3.55073000       9.99600000      -0.00020800       0.19085700       0.01666700
C       -0.00004000       5.68113000       9.99597000       0.16511000      -0.09532600       0.01694100
C        4.92002000       1.42027000       9.99482000      -0.00046700       0.02920500       0.00967200
C        3.69000000       3.55073000       9.99483000       0.02443300      -0.01410700       0.00961000
C        2.46001000       5.68113000       9.99600000      -0.16539100      -0.09524800       0.01666700
Li       1.22995000       0.71015000      12.00000000       0.00001900      -0.00001100      -0.00000000
37
Lattice="7.380000114 0.0 0.0 -3.690000057 6.391267579 0.0 0.0 0.0 24.0" Properties=species:S:1:pos:R:3:forces:R:3 stress="-0.008132580285370746 5.8888638602708545e-05 -0.0 5.8888638602708545e-05 -0.008064585284953373 -0.0 -0.0 -0.0 0.005569791672246576" free_energy=-336.48551054 energy=-336.48377791 pbc="T T T"
C        0.00000000       0.00000000      14.01503000      -0.13103000      -0.07723500      -0.03361400
C       -1.22999000       2.13040000      14.01218000      -0.16452800       0.09499000      -0.01765900
C       -2.46001000       4.26087000      14.01221000      -0.00009000      -0.19006200      -0.01778400
C        2.45998000       0.00000000      14.01510000       0.13252100      -0.07651100      -0.03394300
C        1.22999000       2.13040000      14.01503000       0.00137300       0.15209300      -0.03361400
C       -0.00004000       4.26087000      14.01337000       0.02530300       0.01438500      -0.01557600
C        4.92002000       0.00000000      14.01337000       0.00019400      -0.02910600      -0.01557600
C        3.69004000       2.13040000      14.01221000       0.16455400       0.09510900      -0.01778400
C        2.46001000       4.26087000      14.01333000      -0.02388800       0.01379200      -0.01549200
C        0.00000000       1.42027000      14.01503000      -0.13257000       0.07653900      -0.03363400
C       -1.23002000       3.55073000      14.01338000      -0.02519500      -0.01405700      -0.01568100
C       -2.46001000       5.68113000      14.01508000      -0.00105900      -0.15203000      -0.03386900
C        2.45998000       1.42027000      14.01508000       0.13113200       0.07693200      -0.03386900
C        1.22995000       3.55073000      14.01217000      -0.00019800       0.19015200      -0.01764800
C       -0.00004000       5.68113000      14.01224000       0.16457300      -0.09501600      -0.01790100
C        4.92002000       1.42027000      14.01338000      -0.00042400       0.02884800      -0.01568100
C        3.69000000       3.55073000      14.01336000       0.02409400      -0.01391100      -0.01567200
C        2.46001000       5.68113000      14.01217000      -0.16477500      -0.09490500      -0.01764800
C        0.00000000       0.00000000       9.98497000      -0.13103000      -0.07723500       0.03361400
C       -1.22999000       2.13040000       9.98782000      -0.16452800       0.09499000       0.01765900
C       -2.46001000       4.26087000       9.98779000      -0.00009000      -0.19006200       0.01778400
C        2.45998000       0.00000000       9.98490000       0.13252100      -0.07651100       0.03394300
C        1.22999000       2.13040000       9.98497000       0.00137300       0.15209300       0.03361400
C       -0.00004000       4.26087000       9.98663000       0.02530300       0.01438500       0.01557600
C        4.92002000       0.00000000       9.98663000       0.00019400      -0.02910600       0.01557600
C        3.69004000       2.13040000       9.98779000       0.16455400       0.09510900       0.01778400
C        2.46001000       4.26087000       9.98667000      -0.02388800       0.01379200       0.01549200
C        0.00000000       1.42027000       9.98497000      -0.13257000       0.07653900       0.03363400
C       -1.23002000       3.55073000       9.98662000      -0.02519500      -0.01405700       0.01568100
C       -2.46001000       5.68113000       9.98492000      -0.00105900      -0.15203000       0.03386900
C        2.45998000       1.42027000       9.98492000       0.13113200       0.07693200       0.03386900
C        1.22995000       3.55073000       9.98783000      -0.00019800       0.19015200       0.01764800
C       -0.00004000       5.68113000       9.98776000       0.16457300      -0.09501600       0.01790100
C        4.92002000       1.42027000       9.98662000      -0.00042400       0.02884800       0.01568100
C        3.69000000       3.55073000       9.98664000       0.02409400      -0.01391100       0.01567200
C        2.46001000       5.68113000       9.98783000      -0.16477500      -0.09490500       0.01764800
Li       1.22995000       0.71015000      12.00000000       0.00002700      -0.00001500      -0.00000000
37
Lattice="7.380000114 0.0 0.0 -3.690000057 6.391267579 0.0 0.0 0.0 24.0" Properties=species:S:1:pos:R:3:forces:R:3 stress="-0.008097041132407966 5.88699140753309e-05 -0.0 5.88699140753309e-05 -0.008029064856517972 -0.0 -0.0 -0.0 0.005269063279543269" free_energy=-336.51408748 energy=-336.51220539 pbc="T T T"
C        0.00000000       0.00000000      13.98220000      -0.13534600      -0.07977200      -0.03229800
C       -1.22999000       2.13040000      13.98272000      -0.16652200       0.09614200      -0.03129900
C       -2.46001000       4.26087000      13.98269000      -0.00003000      -0.19228000      -0.03136000
C        2.45998000       0.00000000      13.98210000       0.13696500      -0.07907700      -0.03203800
C        1.22999000       2.13040000      13.98220000       0.00141200       0.15709900      -0.03229800
C       -0.00004000       4.26087000      13.98482000       0.02630400       0.01511000      -0.03386000
C        4.92002000       0.00000000      13.98482000       0.00006600      -0.03033500      -0.03386000
C        3.69004000       2.13040000      13.98269000       0.16650500       0.09616600      -0.03136000
C        2.46001000       4.26087000      13.98485000      -0.02496300       0.01441300      -0.03378600
C        0.00000000       1.42027000      13.98220000      -0.13707200       0.07913900      -0.03229900
C       -1.23002000       3.55073000      13.98482000      -0.02638500      -0.01463900      -0.03399200
C       -2.46001000       5.68113000      13.98214000      -0.00081900      -0.15719300      -0.03224800
C        2.45998000       1.42027000      13.98214000       0.13572300       0.07930600      -0.03224800
C        1.22995000       3.55073000      13.98275000      -0.00013600       0.19251000      -0.03152700
C       -0.00004000       5.68113000      13.98267000       0.16638400      -0.09606200      -0.03149200
C        4.92002000       1.42027000      13.98482000      -0.00051500       0.03016900      -0.03399200
C        3.69000000       3.55073000      13.98484000       0.02522500      -0.01456400      -0.03397600
C        2.46001000       5.68113000      13.98275000      -0.16678600      -0.09613700      -0.03152700
C        0.00000000       0.00000000      10.01780000      -0.13534600      -0.07977200       0.03229800
C       -1.22999000       2.13040000      10.01728000      -0.16652200       0.09614200       0.03129900
C       -2.46001000       4.26087000      10.01731000      -0.00003000      -0.19228000       0.03136000
C        2.45998000       0.00000000      10.01790000       0.13696500      -0.07907700       0.03203800
C        1.22999000       2.13040000      10.01780000       0.00141200       0.15709900       0.03229800
C       -0.00004000       4.26087000      10.01518000       0.02630400       0.01511000       0.03386000
C        4.92002000       0.00000000      10.01518000       0.00006600      -0.03033500       0.03386000
C        3.69004000       2.13040000      10.01731000       0.16650500       0.09616600       0.03136000
C        2.46001000       4.26087000      10.01515000      -0.02496300       0.01441300       0.03378600
C        0.00000000       1.42027000      10.01780000      -0.13707200       0.07913900       0.03229900
C       -1.23002000       3.55073000      10.01518000      -0.02638500      -0.01463900       0.03399200
C       -2.46001000       5.68113000      10.01786000      -0.00081900      -0.15719300       0.03224800
C        2.45998000       1.42027000      10.01786000       0.13572300       0.07930600       0.03224800
C        1.22995000       3.55073000      10.01725000      -0.00013600       0.19251000       0.03152700
C       -0.00004000       5.68113000      10.01733000       0.16638400      -0.09606200       0.03149200
C        4.92002000       1.42027000      10.01518000      -0.00051500       0.03016900       0.03399200
C        3.69000000       3.55073000      10.01516000       0.02522500      -0.01456400       0.03397600
C        2.46001000       5.68113000      10.01725000      -0.16678600      -0.09613700       0.03152700
Li       1.22995000       0.71016000      12.00000000      -0.00002100       0.00001200      -0.00000000
37
Lattice="7.380000114 0.0 0.0 -3.690000057 6.391267579 0.0 0.0 0.0 24.0" Properties=species:S:1:pos:R:3:forces:R:3 stress="-0.007515519727149424 5.8988502748722676e-05 -0.0 5.8988502748722676e-05 -0.007447412379567784 -0.0 -0.0 -0.0 0.006250422000915019" free_energy=-336.45232795 energy=-336.45083332 pbc="T T T"
C        0.00000000       0.00000000      14.04322000      -0.12724000      -0.07505600      -0.07487600
C       -1.22999000       2.13040000      14.03873000      -0.16206200       0.09356700      -0.03685900
C       -2.46001000       4.26087000      14.03879000      -0.00010300      -0.18719100      -0.03689100
C        2.45998000       0.00000000      14.04340000       0.12872200      -0.07431800      -0.07505000
C        1.22999000       2.13040000      14.04322000       0.00138000       0.14772200      -0.07487600
C       -0.00004000       4.26087000      14.03939000       0.02430200       0.01381300      -0.03080000
C        4.92002000       0.00000000      14.03939000       0.00018800      -0.02795200      -0.03080000
C        3.69004000       2.13040000      14.03879000       0.16206000       0.09368500      -0.03689100
C        2.46001000       4.26087000      14.03930000      -0.02289200       0.01321700      -0.03092700
C        0.00000000       1.42027000      14.04321000      -0.12862400       0.07426100      -0.07485200
C       -1.23002000       3.55073000      14.03940000      -0.02427900      -0.01357500      -0.03105000
C       -2.46001000       5.68113000      14.04333000      -0.00119400      -0.14752700      -0.07496900
C        2.45998000       1.42027000      14.04333000       0.12716500       0.07479700      -0.07496900
C        1.22995000       3.55073000      14.03869000      -0.00009000       0.18701900      -0.03693200
C       -0.00004000       5.68113000      14.03886000       0.16196300      -0.09351000      -0.03711000
C        4.92002000       1.42027000      14.03940000      -0.00038300       0.02781300      -0.03105000
C        3.69000000       3.55073000      14.03935000       0.02307900      -0.01332500      -0.03097400
C        2.46001000       5.68113000      14.03869000      -0.16200900      -0.09343200      -0.03693200
C        0.00000000       0.00000000       9.95678000      -0.12724000      -0.07505600       0.07487600
C       -1.22999000       2.13040000       9.96127000      -0.16206200       0.09356700       0.03685900
C       -2.46001000       4.26087000       9.96121000      -0.00010300      -0.18719100       0.03689100
C        2.45998000       0.00000000       9.95660000       0.12872200      -0.07431800       0.07505000
C        1.22999000       2.13040000       9.95678000       0.00138000       0.14772200       0.07487600
C       -0.00004000       4.26087000       9.96061000       0.02430200       0.01381300       0.03080000
C        4.92002000       0.00000000       9.96061000       0.00018800      -0.02795200       0.03080000
C        3.69004000       2.13040000       9.96121000       0.16206000       0.09368500       0.03689100
C        2.46001000       4.26087000       9.96070000      -0.02289200       0.01321700       0.03092700
C        0.00000000       1.42027000       9.95679000      -0.12862400       0.07426100       0.07485200
C       -1.23002000       3.55073000       9.96060000      -0.02427900      -0.01357500       0.03105000
C       -2.46001000       5.68113000       9.95667000      -0.00119400      -0.14752700       0.07496900
C        2.45998000       1.42027000       9.95667000       0.12716500       0.07479700       0.07496900
C        1.22995000       3.55073000       9.96131000      -0.00009000       0.18701900       0.03693200
C       -0.00004000       5.68113000       9.96114000       0.16196300      -0.09351000       0.03711000
C        4.92002000       1.42027000       9.96060000      -0.00038300       0.02781300       0.03105000
C        3.69000000       3.55073000       9.96065000       0.02307900      -0.01332500       0.03097400
C        2.46001000       5.68113000       9.96131000      -0.16200900      -0.09343200       0.03693200
Li       1.22996000       0.71015000      12.00000000       0.00003400      -0.00002000       0.00000000
37
Lattice="7.380000114 0.0 0.0 -3.690000057 6.391267579 0.0 0.0 0.0 24.0" Properties=species:S:1:pos:R:3:forces:R:3 stress="-0.006471689740936707 5.897601973047091e-05 -0.0 5.897601973047091e-05 -0.006403588634864194 -0.0 -0.0 -0.0 0.005633642310604361" free_energy=-336.5258118 energy=-336.5240846 pbc="T T T"
C        0.00000000       0.00000000      13.93477000      -0.14291300      -0.08408900       0.04882800
C       -1.22999000       2.13040000      13.93784000      -0.16857500       0.09732700       0.02594500