37
Lattice="7.380000114 0.0 0.0 -3.690000057 6.391267579 0.0 0.0 0.0 24.0" Properties=species:S:1:pos:R:3:forces:R:3 stress="-0.007378724571637439 5.8857431057079126e-05 -0.0 5.8857431057079126e-05 -0.007310760778765696 -0.0 -0.0 -0.0 0.0019604080843669243" free_energy=-336.47416697 energy=-336.47236783 pbc="T T T"
C        0.00000000       0.00000000      13.80000000      -0.17443100      -0.10230100       0.11460900
C       -1.22999000       2.13040000      13.80000000      -0.17414000       0.10054000      -0.01859600
C       -2.46001000       4.26087000      13.80000000      -0.00011400      -0.20112600      -0.01860000
C        2.45998000       0.00000000      13.80000000       0.17590700      -0.10156000       0.11459500
C        1.22999000       2.13040000      13.80000000       0.00138000       0.20221200       0.11460900
C       -0.00004000       4.26087000      13.80000000       0.03145400       0.01797700       0.02489100
C        4.92002000       0.00000000      13.80000000       0.00015900      -0.03622800       0.02489100
C        3.69004000       2.13040000      13.80000000       0.17412300       0.10066200      -0.01860000
C        2.46001000       4.26087000      13.80000000      -0.03006400       0.01735700       0.02489200
C        0.00000000       1.42027000      13.80000000      -0.17579200       0.10149300       0.11466000
C       -1.23002000       3.55073000      13.80000000      -0.03145000      -0.01770100       0.02488600
C       -2.46001000       5.68113000      13.80000000      -0.00121600      -0.20202100       0.11462500
C        2.45998000       1.42027000      13.80000000       0.17434800       0.10206300       0.11462500
C        1.22995000       3.55073000      13.80000000      -0.00007900       0.20093800      -0.01860500
C       -0.00004000       5.68113000      13.80000000       0.17405700      -0.10049200      -0.01859600
C        4.92002000       1.42027000      13.80000000      -0.00039500       0.03608700       0.02488600
C        3.69000000       3.55073000      13.80000000       0.03025700      -0.01746900       0.02488900
C        2.46001000       5.68113000      13.80000000      -0.17405700      -0.10040000      -0.01860500
C        0.00000000       0.00000000      10.20000000      -0.17443100      -0.10230100      -0.11460900
C       -1.22999000       2.13040000      10.20000000      -0.17414000       0.10054000       0.01859600
C       -2.46001000       4.26087000      10.20000000      -0.00011400      -0.20112600       0.01860000
C        2.45998000       0.00000000      10.20000000       0.17590700      -0.10156000      -0.11459500
C        1.22999000       2.13040000      10.20000000       0.00138000       0.20221200      -0.11460900
C       -0.00004000       4.26087000      10.20000000       0.03145400       0.01797700      -0.02489100
C        4.92002000       0.00000000      10.20000000       0.00015900      -0.03622800      -0.02489100
C        3.69004000       2.13040000      10.20000000       0.17412300       0.10066200       0.01860000
C        2.46001000       4.26087000      10.20000000      -0.03006400       0.01735700      -0.02489200
C        0.00000000       1.42027000      10.20000000      -0.17579200       0.10149300      -0.11466000
C       -1.23002000       3.55073000      10.20000000      -0.03145000      -0.01770100      -0.02488600
C       -2.46001000       5.68113000      10.20000000      -0.00121600      -0.20202100      -0.11462500
C        2.45998000       1.42027000      10.20000000       0.17434800       0.10206300      -0.11462500
C        1.22995000       3.55073000      10.20000000      -0.00007900       0.20093800       0.01860500
C       -0.00004000       5.68113000      10.20000000       0.17405700      -0.10049200       0.01859600
C        4.92002000       1.42027000      10.20000000      -0.00039500       0.03608700      -0.02488600
C        3.69000000       3.55073000      10.20000000       0.03025700      -0.01746900      -0.02488900
C        2.46001000       5.68113000      10.20000000      -0.17405700      -0.10040000       0.01860500
Li       1.22995000       0.71016000      12.00000000       0.00010900      -0.00006300       0.00000000
37
Lattice="7.380000114 0.0 0.0 -3.690000057 6.391267579 0.0 0.0 0.0 24.0" Properties=species:S:1:pos:R:3:forces:R:3 stress="-0.007382413303530836 5.88699140753309e-05 -0.0 5.88699140753309e-05 -0.007314437027640842 -0.0 -0.0 -0.0 0.0020559343815385674" free_energy=-336.48149176 energy=-336.47972868 pbc="T T T"
C        0.00000000       0.00000000      13.80553000      -0.17325700      -0.10161400       0.10243500
C       -1.22999000       2.13040000      13.79910000      -0.17404000       0.10048200       0.02629500
C       -2.46001000       4.26087000      13.79910000      -0.00011400      -0.20101100       0.02626700
C        2.45998000       0.00000000      13.80553000       0.17472300      -0.10087700       0.10250600
C        1.22999000       2.13040000      13.80553000       0.00137200       0.20085200       0.10243500
C       -0.00004000       4.26087000      13.80120000       0.03114500       0.01779800      -0.00149700
C        4.92002000       0.00000000      13.80120000       0.00015900      -0.03587100      -0.00149700
C        3.69004000       2.13040000      13.79910000       0.17402400       0.10060400       0.02626700
C        2.46001000       4.26087000      13.80120000      -0.02975600       0.01718000      -0.00154300
C        0.00000000       1.42027000      13.80553000      -0.17462700       0.10082100       0.10248500
C       -1.23002000       3.55073000      13.80120000      -0.03113800      -0.01752300      -0.00150100
C       -2.46001000       5.68113000      13.80553000      -0.00120600      -0.20066800       0.10249700
C        2.45998000       1.42027000      13.80553000       0.17318000       0.10137800       0.10249700
C        1.22995000       3.55073000      13.79910000      -0.00007800       0.20082300       0.02627400
C       -0.00004000       5.68113000      13.79910000       0.17396100      -0.10043700       0.02628400
C        4.92002000       1.42027000      13.80120000      -0.00039400       0.03572800      -0.00150100
C        3.69000000       3.55073000      13.80120000       0.02995000      -0.01729100      -0.00152100
C        2.46001000       5.68113000      13.79910000      -0.17395600      -0.10034400       0.02627400
C        0.00000000       0.00000000      10.19447000      -0.17325700      -0.10161400      -0.10243500
C       -1.22999000       2.13040000      10.20090000      -0.17404000       0.10048200      -0.02629500
C       -2.46001000       4.26087000      10.20090000      -0.00011400      -0.20101100      -0.02626700
C        2.45998000       0.00000000      10.19447000       0.17472300      -0.10087700      -0.10250600
C        1.22999000       2.13040000      10.19447000       0.00137200       0.20085200      -0.10243500
C       -0.00004000       4.26087000      10.19880000       0.03114500       0.01779800       0.00149700
C        4.92002000       0.00000000      10.19880000       0.00015900      -0.03587100       0.00149700
C        3.69004000       2.13040000      10.20090000       0.17402400       0.10060400      -0.02626700
C        2.46001000       4.26087000      10.19880000      -0.02975600       0.01718000       0.00154300
C        0.00000000       1.42027000      10.19447000      -0.17462700       0.10082100      -0.10248500
C       -1.23002000       3.55073000      10.19880000      -0.03113800      -0.01752300       0.00150100
C       -2.46001000       5.68113000      10.19447000      -0.00120600      -0.20066800      -0.10249700
C        2.45998000       1.42027000      10.19447000       0.17318000       0.10137800      -0.10249700
C        1.22995000       3.55073000      10.20090000      -0.00007800       0.20082300      -0.02627400
C       -0.00004000       5.68113000      10.20090000       0.17396100      -0.10043700      -0.02628400
C        4.92002000       1.42027000      10.19880000      -0.00039400       0.03572800       0.00150100
C        3.69000000       3.55073000      10.19880000       0.02995000      -0.01729100       0.00152100
C        2.46001000       5.68113000      10.20090000      -0.17395600      -0.10034400      -0.02627400
Li       1.22996000       0.71015000      12.00000000       0.00010300      -0.00005900       0.00000000
37
Lattice="7.380000114 0.0 0.0 -3.690000057 6.391267579 0.0 0.0 0.0 24.0" Properties=species:S:1:pos:R:3:forces:R:3 stress="-0.007549261325483949 5.8882397093582655e-05 -0.0 5.8882397093582655e-05 -0.0074812663250665755 -0.0 -0.0 -0.0 0.002019396587115647" free_energy=-336.48688422 energy=-336.48514848 pbc="T T T"
C        0.00000000       0.00000000      13.81051000      -0.17234500      -0.10107500       0.07914800
C       -1.22999000       2.13040000      13.80038000      -0.17371800       0.10029600       0.02521200
C       -2.46001000       4.26087000      13.80038000      -0.00011400      -0.20064000       0.02518500
C        2.45998000       0.00000000      13.81052000       0.17379700      -0.10034200       0.07924700
C        1.22999000       2.13040000      13.81051000       0.00136100       0.19979200       0.07914800
C       -0.00004000       4.26087000      13.80113000       0.03090900       0.01766200       0.00941500
C        4.92002000       0.00000000      13.80113000       0.00015900      -0.03559900       0.00941500
C        3.69004000       2.13040000      13.80038000       0.17370200       0.10041900       0.02518500
C        2.46001000       4.26087000      13.80113000      -0.02952200       0.01704400       0.00936300
C        0.00000000       1.42027000      13.81052000      -0.17374100       0.10030900       0.07917800
C       -1.23002000       3.55073000      13.80113000      -0.03090200      -0.01738800       0.00941800
C       -2.46001000       5.68113000      13.81052000      -0.00118200      -0.19962500       0.07921800
C        2.45998000       1.42027000      13.81052000       0.17228900       0.10083600       0.07921800
C        1.22995000       3.55073000      13.80038000      -0.00007600       0.20045000       0.02515200
C       -0.00004000       5.68113000      13.80038000       0.17364200      -0.10025200       0.02521200
C        4.92002000       1.42027000      13.80113000      -0.00039200       0.03545600       0.00941800
C        3.69000000       3.55073000      13.80113000       0.02971500      -0.01715600       0.00935300
C        2.46001000       5.68113000      13.80038000      -0.17363300      -0.10016000       0.02515200
C        0.00000000       0.00000000      10.18949000      -0.17234500      -0.10107500      -0.07914800
C       -1.22999000       2.13040000      10.19962000      -0.17371800       0.10029600      -0.02521200
C       -2.46001000       4.26087000      10.19962000      -0.00011400      -0.20064000      -0.02518500
C        2.45998000       0.00000000      10.18948000       0.17379700      -0.10034200      -0.07924700
C        1.22999000       2.13040000      10.18949000       0.00136100       0.19979200      -0.07914800
C       -0.00004000       4.26087000      10.19887000       0.03090900       0.01766200      -0.00941500
C        4.92002000       0.00000000      10.19887000       0.00015900      -0.03559900      -0.00941500
C        3.69004000       2.13040000      10.19962000       0.17370200       0.10041900      -0.02518500
C        2.46001000       4.26087000      10.19887000      -0.02952200       0.01704400      -0.00936300
C        0.00000000       1.42027000      10.18948000      -0.17374100       0.10030900      -0.07917800
C       -1.23002000       3.55073000      10.19887000      -0.03090200      -0.01738800      -0.00941800
C       -2.46001000       5.68113000      10.18948000      -0.00118200      -0.19962500      -0.07921800
C        2.45998000       1.42027000      10.18948000       0.17228900       0.10083600      -0.07921800
C        1.22995000       3.55073000      10.19962000      -0.00007600       0.20045000      -0.02515200
C       -0.00004000       5.68113000      10.19962000       0.17364200      -0.10025200      -0.02521200
C        4.92002000       1.42027000      10.19887000      -0.00039200       0.03545600      -0.00941800
C        3.69000000       3.55073000      10.19887000       0.02971500      -0.01715600      -0.00935300
C        2.46001000       5.68113000      10.19962000      -0.17363300      -0.10016000      -0.02515200
Li       1.22996000       0.71015000      12.00000000       0.00010000      -0.00005800      -0.00000000
37
Lattice="7.380000114 0.0 0.0 -3.690000057 6.391267579 0.0 0.0 0.0 24.0" Properties=species:S:1:pos:R:3:forces:R:3 stress="-0.007543413031432995 5.8919846148337957e-05 -0.0 5.8919846148337957e-05 -0.007475374340451741 -0.0 -0.0 -0.0 0.002300851199638227" free_energy=-336.50206796 energy=-336.50038338 pbc="T T T"
C        0.00000000       0.00000000      13.82506000      -0.17104300      -0.10030100       0.07184200
C       -1.22999000       2.13040000      13.80499000      -0.17165900       0.09910700       0.03241500
C       -2.46001000       4.26087000      13.80498000      -0.00012300      -0.19825400       0.03241000
C        2.45998000       0.00000000      13.82508000       0.17248200      -0.09958300       0.07204400
C        1.22999000       2.13040000      13.82506000       0.00134200       0.19827900       0.07184200
C       -0.00004000       4.26087000      13.80279000       0.03023700       0.01728200       0.03417500
C        4.92002000       0.00000000      13.80279000       0.00015200      -0.03482700       0.03417500
C        3.69004000       2.13040000      13.80498000       0.17163100       0.09923300       0.03241000
C        2.46001000       4.26087000      13.80278000      -0.02887000       0.01666800       0.03403400
C        0.00000000       1.42027000      13.82507000      -0.17254100       0.09961600       0.07170900
C       -1.23002000       3.55073000      13.80279000      -0.03024000      -0.01700000       0.03421500
C       -2.46001000       5.68113000      13.82508000      -0.00107100      -0.19821300       0.07181600
C        2.45998000       1.42027000      13.82508000       0.17112200       0.10003400       0.07181600
C        1.22995000       3.55073000      13.80497000      -0.00009200       0.19809600       0.03233500
C       -0.00004000       5.68113000      13.80499000       0.17158300      -0.09906400       0.03248900
C        4.92002000       1.42027000      13.80279000      -0.00039700       0.03468900       0.03421500
C        3.69000000       3.55073000      13.80278000       0.02904300      -0.01676800       0.03411300
C        2.46001000       5.68113000      13.80497000      -0.17160200      -0.09896900       0.03233500
C        0.00000000       0.00000000      10.17494000      -0.17104300      -0.10030100      -0.07184200
C       -1.22999000       2.13040000      10.19501000      -0.17165900       0.09910700      -0.03241500
C       -2.46001000       4.26087000      10.19502000      -0.00012300      -0.19825400      -0.03241000
C        2.45998000       0.00000000      10.17492000       0.17248200      -0.09958300      -0.07204400
C        1.22999000       2.13040000      10.17494000       0.00134200       0.19827900      -0.07184200
C       -0.00004000       4.26087000      10.19721000       0.03023700       0.01728200      -0.03417500
C        4.92002000       0.00000000      10.19721000       0.00015200      -0.03482700      -0.03417500
C        3.69004000       2.13040000      10.19502000       0.17163100       0.09923300      -0.03241000
C        2.46001000       4.26087000      10.19722000      -0.02887000       0.01666800      -0.03403400
C        0.00000000       1.42027000      10.17493000      -0.17254100       0.09961600      -0.07170900
C       -1.23002000       3.55073000      10.19721000      -0.03024000      -0.01700000      -0.03421500
C       -2.46001000       5.68113000      10.17492000      -0.00107100      -0.19821300      -0.07181600
C        2.45998000       1.42027000      10.17492000       0.17112200       0.10003400      -0.07181600
C        1.22995000       3.55073000      10.19503000      -0.00009200       0.19809600      -0.03233500
C       -0.00004000       5.68113000      10.19501000       0.17158300      -0.09906400      -0.03248900
C        4.92002000       1.42027000      10.19721000      -0.00039700       0.03468900      -0.03421500
C        3.69000000       3.55073000      10.19722000       0.02904300      -0.01676800      -0.03411300
C        2.46001000       5.68113000      10.19503000      -0.17160200      -0.09896900      -0.03233500
Li       1.22998000       0.71014000      12.00000000       0.00009000      -0.00005200      -0.00000000
37
Lattice="7.380000114 0.0 0.0 -3.690000057 6.391267579 0.0 0.0 0.0 24.0" Properties=species:S:1:pos:R:3:forces:R:3 stress="-0.007550191310343705 5.89073631300862e-05 -0.0 5.89073631300862e-05 -0.007482171343889829 -0.0 -0.0 -0.0 0.0021802028282349034" free_energy=-336.49451137 energy=-336.49280748 pbc="T T T"
C        0.00000000       0.00000000      13.81764000      -0.17129400      -0.10045300       0.07605600
C       -1.22999000       2.13040000      13.80275000      -0.17288200       0.09981300       0.03072100
C       -2.46001000       4.26087000      13.80275000      -0.00011700      -0.19967300       0.03071000
C        2.45998000       0.00000000      13.81765000       0.17273200      -0.09972700       0.07617300
C        1.22999000       2.13040000      13.81764000       0.00134700       0.19857100       0.07605600
C       -0.00004000       4.26087000      13.80225000       0.03055400       0.01746000       0.01994000
C        4.92002000       0.00000000      13.80225000       0.00015700      -0.03519100       0.01994000
C        3.69004000       2.13040000      13.80275000       0.17286300       0.09993800       0.03071000
C        2.46001000       4.26087000      13.80224000      -0.02917400       0.01684400       0.01984700
C        0.00000000       1.42027000      13.81765000      -0.17274300       0.09973300       0.07604900
C       -1.23002000       3.55073000      13.80225000      -0.03054900      -0.01718400       0.01995400
C       -2.46001000       5.68113000      13.81765000      -0.00112700      -0.19845000       0.07610900
C        2.45998000       1.42027000      13.81765000       0.17129900       0.10020100       0.07610900
C        1.22995000       3.55073000      13.80275000      -0.00008100       0.19949300       0.03065300
C       -0.00004000       5.68113000      13.80275000       0.17280700      -0.09977000       0.03075700
C        4.92002000       1.42027000      13.80225000      -0.00039300       0.03504800       0.01995400
C        3.69000000       3.55073000      13.80224000       0.02936000      -0.01695100       0.01987300
C        2.46001000       5.68113000      13.80275000      -0.17280600      -0.09967600       0.03065300
C        0.00000000       0.00000000      10.18236000      -0.17129400      -0.10045300      -0.07605600
C       -1.22999000       2.13040000      10.19725000      -0.17288200       0.09981300      -0.03072100
C       -2.46001000       4.26087000      10.19725000      -0.00011700      -0.19967300      -0.03071000
C        2.45998000       0.00000000      10.18235000       0.17273200      -0.09972700      -0.07617300
C        1.22999000       2.13040000      10.18236000       0.00134700       0.19857100      -0.07605600
C       -0.00004000       4.26087000      10.19775000       0.03055400       0.01746000      -0.01994000
C        4.92002000       0.00000000      10.19775000       0.00015700      -0.03519100      -0.01994000
C        3.69004000       2.13040000      10.19725000       0.17286300       0.09993800      -0.03071000
C        2.46001000       4.26087000      10.19776000      -0.02917400       0.01684400      -0.01984700
C        0.00000000       1.42027000      10.18235000      -0.17274300       0.09973300      -0.07604900
C       -1.23002000       3.55073000      10.19775000      -0.03054900      -0.01718400      -0.01995400
C       -2.46001000       5.68113000      10.18235000      -0.00112700      -0.19845000      -0.07610900
C        2.45998000       1.42027000      10.18235000       0.17129900       0.10020100      -0.07610900
C        1.22995000       3.55073000      10.19725000      -0.00008100       0.19949300      -0.03065300
C       -0.00004000       5.68113000      10.19725000       0.17280700      -0.09977000      -0.03075700
C        4.92002000       1.42027000      10.19775000      -0.00039300       0.03504800      -0.01995400
C        3.69000000       3.55073000      10.19776000       0.02936000      -0.01695100      -0.01987300
C        2.46001000       5.68113000      10.19725000      -0.17280600      -0.09967600      -0.03065300
Li       1.22997000       0.71014000      12.00000000       0.00009800      -0.00005700      -0.00000000
37
Lattice="7.380000114 0.0 0.0 -3.690000057 6.391267579 0.0 0.0 0.0 24.0" Properties=species:S:1:pos:R:3:forces:R:3 stress="-0.007548911800972899 5.891360463921208e-05 -0.0 5.891360463921208e-05 -0.0074808793515007705 -0.0 -0.0 -0.0 0.0022376122291747776" free_energy=-336.49820899 energy=-336.49651627 pbc="T T T"
C        0.00000000       0.00000000      13.82091000      -0.17097900      -0.10026700       0.07379300
C       -1.22999000       2.13040000      13.80411000      -0.17247700       0.09958000       0.03398200
C       -2.46001000       4.26087000      13.80410000      -0.00011900      -0.19920300       0.03397600
C        2.45998000       0.00000000      13.82093000       0.17241500      -0.09954400       0.07394400
C        1.22999000       2.13040000      13.82091000       0.00134400       0.19820600       0.07379300
C       -0.00004000       4.26087000      13.80314000       0.03044300       0.01739700       0.02456600
C        4.92002000       0.00000000      13.80314000       0.00015500      -0.03506200       0.02456600
C        3.69004000       2.13040000      13.80410000       0.17245500       0.09970500       0.03397600
C        2.46001000       4.26087000      13.80313000      -0.02906800       0.01678200       0.02445900
C        0.00000000       1.42027000      13.82091000      -0.17245300       0.09956600       0.07377000
C       -1.23002000       3.55073000      13.80314000      -0.03043900      -0.01711900       0.02457800
C       -2.46001000       5.68113000      13.82092000      -0.00110000      -0.19810800       0.07384700
C        2.45998000       1.42027000      13.82092000       0.17101600       0.10000600       0.07384700
C        1.22995000       3.55073000      13.80410000      -0.00008700       0.19903300       0.03391000
C       -0.00004000       5.68113000      13.80411000       0.17240200      -0.09953600       0.03402600
C        4.92002000       1.42027000      13.80314000      -0.00039400       0.03492100       0.02457800
C        3.69000000       3.55073000      13.80313000       0.02924800      -0.01688600       0.02449600
C        2.46001000       5.68113000      13.80410000      -0.17241100      -0.09944100       0.03391000
C        0.00000000       0.00000000      10.17909000      -0.17097900      -0.10026700      -0.07379300
C       -1.22999000       2.13040000      10.19589000      -0.17247700       0.09958000      -0.03398200
C       -2.46001000       4.26087000      10.19590000      -0.00011900      -0.19920300      -0.03397600
C        2.45998000       0.00000000      10.17907000       0.17241500      -0.09954400      -0.07394400
C        1.22999000       2.13040000      10.17909000       0.00134400       0.19820600      -0.07379300
C       -0.00004000       4.26087000      10.19686000       0.03044300       0.01739700      -0.02456600
C        4.92002000       0.00000000      10.19686000       0.00015500      -0.03506200      -0.02456600
C        3.69004000       2.13040000      10.19590000       0.17245500       0.09970500      -0.03397600
C        2.46001000       4.26087000      10.19687000      -0.02906800       0.01678200      -0.02445900
C        0.00000000       1.42027000      10.17909000      -0.17245300       0.09956600      -0.07377000
C       -1.23002000       3.55073000      10.19686000      -0.03043900      -0.01711900      -0.02457800
C       -2.46001000       5.68113000      10.17908000      -0.00110000      -0.19810800      -0.07384700
C        2.45998000       1.42027000      10.17908000       0.17101600       0.10000600      -0.07384700
C        1.22995000       3.55073000      10.19590000      -0.00008700       0.19903300      -0.03391000
C       -0.00004000       5.68113000      10.19589000       0.17240200      -0.09953600      -0.03402600
C        4.92002000       1.42027000      10.19686000      -0.00039400       0.03492100      -0.02457800
C        3.69000000       3.55073000      10.19687000       0.02924800      -0.01688600      -0.02449600
C        2.46001000       5.68113000      10.19590000      -0.17241100      -0.09944100      -0.03391000
Li       1.22997000       0.71014000      12.00000000       0.00009700      -0.00005600      -0.00000000
37
Lattice="7.380000114 0.0 0.0 -3.690000057 6.391267579 0.0 0.0 0.0 24.0" Properties=species:S:1:pos:R:3:forces:R:3 stress="-0.00754956091792199 5.891360463921208e-05 -0.0 5.891360463921208e-05 -0.007481540951468115 -0.0 -0.0 -0.0 0.002213457588857609" free_energy=-336.49660115 energy=-336.49490373 pbc="T T T"
C        0.00000000       0.00000000      13.81959000      -0.17121400      -0.10040400       0.07448500
C       -1.22999000       2.13040000      13.80341000      -0.17265800       0.09968400       0.03273500
C       -2.46001000       4.26087000      13.80341000      -0.00011800      -0.19941300       0.03272500
C        2.45998000       0.00000000      13.81960000       0.17265000      -0.09968000       0.07462500
C        1.22999000       2.13040000      13.81959000       0.00134500       0.19847800       0.07448500
C       -0.00004000       4.26087000      13.80260000       0.03049900       0.01742900       0.02277000
C        4.92002000       0.00000000      13.80260000       0.00015600      -0.03512700       0.02277000
C        3.69004000       2.13040000      13.80341000       0.17263700       0.09980900       0.03272500
C        2.46001000       4.26087000      13.80259000      -0.02912200       0.01681400       0.02266400
C        0.00000000       1.42027000      13.81959000      -0.17267800       0.09969600       0.07446000
C       -1.23002000       3.55073000      13.80260000      -0.03049500      -0.01715200       0.02278100
C       -2.46001000       5.68113000      13.81960000      -0.00111100      -0.19837000       0.07453100
C        2.45998000       1.42027000      13.81960000       0.17123800       0.10014700       0.07453100
C        1.22995000       3.55073000      13.80340000      -0.00008400       0.19923800       0.03266200
C       -0.00004000       5.68113000      13.80341000       0.17258300      -0.09964100       0.03277100
C        4.92002000       1.42027000      13.80260000      -0.00039400       0.03498500       0.02278100
C        3.69000000       3.55073000      13.80259000       0.02930500      -0.01691900       0.02269900
C        2.46001000       5.68113000      13.80340000      -0.17258700      -0.09954600       0.03266200
C        0.00000000       0.00000000      10.18041000      -0.17121400      -0.10040400      -0.07448500
C       -1.22999000       2.13040000      10.19659000      -0.17265800       0.09968400      -0.03273500
C       -2.46001000       4.26087000      10.19659000      -0.00011800      -0.19941300      -0.03272500
C        2.45998000       0.00000000      10.18040000       0.17265000      -0.09968000      -0.07462500
C        1.22999000       2.13040000      10.18041000       0.00134500       0.19847800      -0.07448500
C       -0.00004000       4.26087000      10.19740000       0.03049900       0.01742900      -0.02277000
C        4.92002000       0.00000000      10.19740000       0.00015600      -0.03512700      -0.02277000
C        3.69004000       2.13040000      10.19659000       0.17263700       0.09980900      -0.03272500
C        2.46001000       4.26087000      10.19741000      -0.02912200       0.01681400      -0.02266400
C        0.00000000       1.42027000      10.18041000      -0.17267800       0.09969600      -0.07446000
C       -1.23002000       3.55073000      10.19740000      -0.03049500      -0.01715200      -0.02278100
C       -2.46001000       5.68113000      10.18040000      -0.00111100      -0.19837000      -0.07453100
C        2.45998000       1.42027000      10.18040000       0.17123800       0.10014700      -0.07453100
C        1.22995000       3.55073000      10.19660000      -0.00008400       0.19923800      -0.03266200
C       -0.00004000       5.68113000      10.19659000       0.17258300      -0.09964100      -0.03277100
C        4.92002000       1.42027000      10.19740000      -0.00039400       0.03498500      -0.02278100
C        3.69000000       3.55073000      10.19741000       0.02930500      -0.01691900      -0.02269900
C        2.46001000       5.68113000      10.19660000      -0.17258700      -0.09954600      -0.03266200
Li       1.22997000       0.71014000      12.00000000       0.00009700      -0.00005600       0.00000000
37
Lattice="7.380000114 0.0 0.0 -3.690000057 6.391267579 0.0 0.0 0.0 24.0" Properties=species:S:1:pos:R:3:forces:R:3 stress="-0.007546440163359049 5.889488011183442e-05 -0.0 5.889488011183442e-05 -0.007478438921432551 -0.0 -0.0 -0.0 0.002128192332688918" free_energy=-336.49154179 energy=-336.48982286 pbc="T T T"
C        0.00000000       0.00000000      13.81570000      -0.17195700      -0.10084000       0.07418900
C       -1.22999000       2.13040000      13.80060000      -0.17295900       0.09985800       0.02771800