37
Lattice="7.380000114 0.0 0.0 -3.690000057 6.391267579 0.0 0.0 0.0 24.0" Properties=species:S:1:pos:R:3:forces:R:3 stress="-0.0063468720414372945 5.111795974098389e-05 -0.0 5.111795974098389e-05 -0.006287846089633816 -0.0 -0.0 -0.0 -0.010516318726200702" free_energy=-335.27079294 energy=-335.26589947 pbc="T T T"
C        0.00000000       0.00000000      13.55000000      -0.30225000      -0.17624700       0.54808200
C       -1.22999000       2.13040000      13.55000000      -0.18045300       0.10418500       0.17081600
C       -2.46001000       4.26087000      13.55000000      -0.00156800      -0.20590800       0.16978900
C        2.45998000       0.00000000      13.55000000       0.30394900      -0.17548500       0.54695400
C        1.22999000       2.13040000      13.55000000       0.00150900       0.34988000       0.54808200
C       -0.00004000       4.26087000      13.55000000       0.03869400       0.02194900       0.21820800
C        4.92002000       0.00000000      13.55000000       0.00033800      -0.04448400       0.21820800
C        3.69004000       2.13040000      13.55000000       0.17753800       0.10431300       0.16978900
C        2.46001000       4.26087000      13.55000000      -0.03699300       0.02135800       0.21923000
C        0.00000000       1.42027000      13.55000000      -0.30334800       0.17513800       0.54903500
C       -1.23002000       3.55073000      13.55000000      -0.03860000      -0.02113000       0.21725600
C       -2.46001000       5.68113000      13.55000000      -0.00182600      -0.34998500       0.54696700
C        2.45998000       1.42027000      13.55000000       0.30218200       0.17657400       0.54696700
C        1.22995000       3.55073000      13.55000000       0.00082900       0.20544000       0.17083500
C       -0.00004000       5.68113000      13.55000000       0.18095100      -0.10447200       0.16887700
C        4.92002000       1.42027000      13.55000000      -0.00100100       0.04399300       0.21725600
C        3.69000000       3.55073000      13.55000000       0.03774300      -0.02179100       0.21721100
C        2.46001000       5.68113000      13.55000000      -0.17750100      -0.10343800       0.17083500
C        0.00000000       0.00000000      10.45000000      -0.30225000      -0.17624700      -0.54808200
C       -1.22999000       2.13040000      10.45000000      -0.18045300       0.10418500      -0.17081600
C       -2.46001000       4.26087000      10.45000000      -0.00156800      -0.20590800      -0.16978900
C        2.45998000       0.00000000      10.45000000       0.30394900      -0.17548500      -0.54695400
C        1.22999000       2.13040000      10.45000000       0.00150900       0.34988000      -0.54808200
C       -0.00004000       4.26087000      10.45000000       0.03869400       0.02194900      -0.21820800
C        4.92002000       0.00000000      10.45000000       0.00033800      -0.04448400      -0.21820800
C        3.69004000       2.13040000      10.45000000       0.17753800       0.10431300      -0.16978900
C        2.46001000       4.26087000      10.45000000      -0.03699300       0.02135800      -0.21923000
C        0.00000000       1.42027000      10.45000000      -0.30334800       0.17513800      -0.54903500
C       -1.23002000       3.55073000      10.45000000      -0.03860000      -0.02113000      -0.21725600
C       -2.46001000       5.68113000      10.45000000      -0.00182600      -0.34998500      -0.54696700
C        2.45998000       1.42027000      10.45000000       0.30218200       0.17657400      -0.54696700
C        1.22995000       3.55073000      10.45000000       0.00082900       0.20544000      -0.17083500
C       -0.00004000       5.68113000      10.45000000       0.18095100      -0.10447200      -0.16887700
C        4.92002000       1.42027000      10.45000000      -0.00100100       0.04399300      -0.21725600
C        3.69000000       3.55073000      10.45000000       0.03774300      -0.02179100      -0.21721100
C        2.46001000       5.68113000      10.45000000      -0.17750100      -0.10343800      -0.17083500
Li       1.22995000       0.71016000      12.00000000      -0.00038400       0.00022200       0.00000000
37
Lattice="7.380000114 0.0 0.0 -3.690000057 6.391267579 0.0 0.0 0.0 24.0" Properties=species:S:1:pos:R:3:forces:R:3 stress="-0.006966922282529915 5.769651035966484e-05 -0.0 5.769651035966484e-05 -0.006900294172611111 -0.0 -0.0 -0.0 -0.009001841502841633" free_energy=-335.46670233 energy=-335.46175512 pbc="T T T"
C        0.00000000       0.00000000      13.57644000      -0.28391400      -0.16564800       0.39229300
C       -1.22999000       2.13040000      13.55824000      -0.17830800       0.10294600       0.24699300
C       -2.46001000       4.26087000      13.55819000       0.00001300      -0.20615000       0.24673100
C        2.45998000       0.00000000      13.57639000       0.28561400      -0.16489900       0.39201700
C        1.22999000       2.13040000      13.57644000       0.00149900       0.32870100       0.39229300
C       -0.00004000       4.26087000      13.56053000       0.03701700       0.02103100       0.15969500
C        4.92002000       0.00000000      13.56053000       0.00029500      -0.04257300       0.15969500
C        3.69004000       2.13040000      13.55819000       0.17853800       0.10306400       0.24673100
C        2.46001000       4.26087000      13.56058000      -0.03534900       0.02040900       0.15937700
C        0.00000000       1.42027000      13.57649000      -0.28559300       0.16488700       0.39184700
C       -1.23002000       3.55073000      13.56048000      -0.03700000      -0.02076500       0.16064600
C       -2.46001000       5.68113000      13.57639000      -0.00123600      -0.32857900       0.39259500
C        2.45998000       1.42027000      13.57639000       0.28394000       0.16536000       0.39259500
C        1.22995000       3.55073000      13.55824000      -0.00022600       0.20595600       0.24741100
C       -0.00004000       5.68113000      13.55815000       0.17820500      -0.10288600       0.24797800
C        4.92002000       1.42027000      13.56048000      -0.00051700       0.04242600       0.16064600
C        3.69000000       3.55073000      13.56048000       0.03557100      -0.02053700       0.16070000
C        2.46001000       5.68113000      13.55824000      -0.17847600      -0.10278200       0.24741100
C        0.00000000       0.00000000      10.42356000      -0.28391400      -0.16564800      -0.39229300
C       -1.22999000       2.13040000      10.44176000      -0.17830800       0.10294600      -0.24699300
C       -2.46001000       4.26087000      10.44181000       0.00001300      -0.20615000      -0.24673100
C        2.45998000       0.00000000      10.42361000       0.28561400      -0.16489900      -0.39201700
C        1.22999000       2.13040000      10.42356000       0.00149900       0.32870100      -0.39229300
C       -0.00004000       4.26087000      10.43947000       0.03701700       0.02103100      -0.15969500
C        4.92002000       0.00000000      10.43947000       0.00029500      -0.04257300      -0.15969500
C        3.69004000       2.13040000      10.44181000       0.17853800       0.10306400      -0.24673100
C        2.46001000       4.26087000      10.43942000      -0.03534900       0.02040900      -0.15937700
C        0.00000000       1.42027000      10.42351000      -0.28559300       0.16488700      -0.39184700
C       -1.23002000       3.55073000      10.43952000      -0.03700000      -0.02076500      -0.16064600
C       -2.46001000       5.68113000      10.42361000      -0.00123600      -0.32857900      -0.39259500
C        2.45998000       1.42027000      10.42361000       0.28394000       0.16536000      -0.39259500
C        1.22995000       3.55073000      10.44176000      -0.00022600       0.20595600      -0.24741100
C       -0.00004000       5.68113000      10.44185000       0.17820500      -0.10288600      -0.24797800
C        4.92002000       1.42027000      10.43952000      -0.00051700       0.04242600      -0.16064600
C        3.69000000       3.55073000      10.43952000       0.03557100      -0.02053700      -0.16070000
C        2.46001000       5.68113000      10.44176000      -0.17847600      -0.10278200      -0.24741100
Li       1.22993000       0.71017000      12.00000000      -0.00014400       0.00008300       0.00000000
37
Lattice="7.380000114 0.0 0.0 -3.690000057 6.391267579 0.0 0.0 0.0 24.0" Properties=species:S:1:pos:R:3:forces:R:3 stress="-0.007566475407653135 5.7964895252077816e-05 -0.0 5.7964895252077816e-05 -0.007499541463787162 -0.0 -0.0 -0.0 -0.006579911267670397" free_energy=-335.76740151 energy=-335.76234089 pbc="T T T"
C        0.00000000       0.00000000      13.62433000      -0.26292900      -0.15357600       0.30083000
C       -1.22999000       2.13040000      13.58839000      -0.17326400       0.10003400       0.12179100
C       -2.46001000       4.26087000      13.58831000      -0.00001600      -0.20020600       0.12266500
C        2.45998000       0.00000000      13.62424000       0.26469900      -0.15282400       0.30159700
C        1.22999000       2.13040000      13.62433000       0.00153600       0.30449100       0.30083000
C       -0.00004000       4.26087000      13.58002000       0.03620900       0.02054200       0.19464400
C        4.92002000       0.00000000      13.58002000       0.00031400      -0.04162900       0.19464400
C        3.69004000       2.13040000      13.58831000       0.17337500       0.10011700       0.12266500
C        2.46001000       4.26087000      13.58003000      -0.03456100       0.01995400       0.19430500
C        0.00000000       1.42027000      13.62432000      -0.26491800       0.15295000       0.30094700
C       -1.23002000       3.55073000      13.58009000      -0.03613100      -0.02025800       0.19226200
C       -2.46001000       5.68113000      13.62431000      -0.00093500      -0.30454400       0.29986100
C        2.45998000       1.42027000      13.62431000       0.26327500       0.15308200       0.29986100
C        1.22995000       3.55073000      13.58844000      -0.00035800       0.20039700       0.12005100
C       -0.00004000       5.68113000      13.58842000       0.17325500      -0.10002900       0.11995600
C        4.92002000       1.42027000      13.58009000      -0.00052200       0.04141900       0.19226200
C        3.69000000       3.55073000      13.58010000       0.03471700      -0.02004400       0.19169100
C        2.46001000       5.68113000      13.58844000      -0.17372800      -0.09988900       0.12005100
C        0.00000000       0.00000000      10.37567000      -0.26292900      -0.15357600      -0.30083000
C       -1.22999000       2.13040000      10.41161000      -0.17326400       0.10003400      -0.12179100
C       -2.46001000       4.26087000      10.41169000      -0.00001600      -0.20020600      -0.12266500
C        2.45998000       0.00000000      10.37576000       0.26469900      -0.15282400      -0.30159700
C        1.22999000       2.13040000      10.37567000       0.00153600       0.30449100      -0.30083000
C       -0.00004000       4.26087000      10.41998000       0.03620900       0.02054200      -0.19464400
C        4.92002000       0.00000000      10.41998000       0.00031400      -0.04162900      -0.19464400
C        3.69004000       2.13040000      10.41169000       0.17337500       0.10011700      -0.12266500
C        2.46001000       4.26087000      10.41997000      -0.03456100       0.01995400      -0.19430500
C        0.00000000       1.42027000      10.37568000      -0.26491800       0.15295000      -0.30094700
C       -1.23002000       3.55073000      10.41991000      -0.03613100      -0.02025800      -0.19226200
C       -2.46001000       5.68113000      10.37569000      -0.00093500      -0.30454400      -0.29986100
C        2.45998000       1.42027000      10.37569000       0.26327500       0.15308200      -0.29986100
C        1.22995000       3.55073000      10.41156000      -0.00035800       0.20039700      -0.12005100
C       -0.00004000       5.68113000      10.41158000       0.17325500      -0.10002900      -0.11995600
C        4.92002000       1.42027000      10.41991000      -0.00052200       0.04141900      -0.19226200
C        3.69000000       3.55073000      10.41990000       0.03471700      -0.02004400      -0.19169100
C        2.46001000       5.68113000      10.41156000      -0.17372800      -0.09988900      -0.12005100
Li       1.22991000       0.71018000      12.00000000      -0.00003900       0.00002300       0.00000000
37
Lattice="7.380000114 0.0 0.0 -3.690000057 6.391267579 0.0 0.0 0.0 24.0" Properties=species:S:1:pos:R:3:forces:R:3 stress="-0.006317692986273789 6.618496277086607e-05 -0.0 6.618496277086607e-05 -0.006241265707027349 -0.0 -0.0 -0.0 -0.0015968713853298539" free_energy=-336.11248756 energy=-336.10723209 pbc="T T T"
C        0.00000000       0.00000000      13.72073000      -0.26092100      -0.15181600       0.03095600
C       -1.22999000       2.13040000      13.64160000      -0.13933500       0.08044500       0.12171700
C       -2.46001000       4.26087000      13.64158000      -0.00049100      -0.16011500       0.12142000
C        2.45998000       0.00000000      13.72069000       0.26149400      -0.15097400       0.03233700
C        1.22999000       2.13040000      13.72073000       0.00101600       0.30187200       0.03095600
C       -0.00004000       4.26087000      13.62726000       0.03287000       0.01935100       0.20932900
C        4.92002000       0.00000000      13.62726000      -0.00032300      -0.03814100       0.20932900
C        3.69004000       2.13040000      13.64158000       0.13841800       0.08048300       0.12142000
C        2.46001000       4.26087000      13.62718000      -0.03234100       0.01867200       0.20905000
C        0.00000000       1.42027000      13.72067000      -0.26266000       0.15164700       0.03343100
C       -1.23002000       3.55073000      13.62722000      -0.03401200      -0.01829500       0.21044800
C       -2.46001000       5.68113000      13.72066000      -0.00156300      -0.30107700       0.03291900
C        2.45998000       1.42027000      13.72066000       0.25995900       0.15189200       0.03291900
C        1.22995000       3.55073000      13.64153000       0.00418500       0.15779700       0.12425600
C       -0.00004000       5.68113000      13.64158000       0.13809500      -0.07972900       0.12247600
C        4.92002000       1.42027000      13.62722000      -0.00116200       0.03860300       0.21044800
C        3.69000000       3.55073000      13.62717000       0.03154800      -0.01821400       0.20997800
C        2.46001000       5.68113000      13.64153000      -0.13456400      -0.08252300       0.12425600
C        0.00000000       0.00000000      10.27927000      -0.26092100      -0.15181600      -0.03095600
C       -1.22999000       2.13040000      10.35840000      -0.13933500       0.08044500      -0.12171700
C       -2.46001000       4.26087000      10.35842000      -0.00049100      -0.16011500      -0.12142000
C        2.45998000       0.00000000      10.27931000       0.26149400      -0.15097400      -0.03233700
C        1.22999000       2.13040000      10.27927000       0.00101600       0.30187200      -0.03095600
C       -0.00004000       4.26087000      10.37274000       0.03287000       0.01935100      -0.20932900
C        4.92002000       0.00000000      10.37274000      -0.00032300      -0.03814100      -0.20932900
C        3.69004000       2.13040000      10.35842000       0.13841800       0.08048300      -0.12142000
C        2.46001000       4.26087000      10.37282000      -0.03234100       0.01867200      -0.20905000
C        0.00000000       1.42027000      10.27933000      -0.26266000       0.15164700      -0.03343100
C       -1.23002000       3.55073000      10.37278000      -0.03401200      -0.01829500      -0.21044800
C       -2.46001000       5.68113000      10.27934000      -0.00156300      -0.30107700      -0.03291900
C        2.45998000       1.42027000      10.27934000       0.25995900       0.15189200      -0.03291900
C        1.22995000       3.55073000      10.35847000       0.00418500       0.15779700      -0.12425600
C       -0.00004000       5.68113000      10.35842000       0.13809500      -0.07972900      -0.12247600
C        4.92002000       1.42027000      10.37278000      -0.00116200       0.03860300      -0.21044800
C        3.69000000       3.55073000      10.37283000       0.03154800      -0.01821400      -0.20997800
C        2.46001000       5.68113000      10.35847000      -0.13456400      -0.08252300      -0.12425600
Li       1.22989000       0.71019000      12.00000000      -0.00042100       0.00024300      -0.00000000
37
Lattice="7.380000114 0.0 0.0 -3.690000057 6.391267579 0.0 0.0 0.0 24.0" Properties=species:S:1:pos:R:3:forces:R:3 stress="-0.006259203804255136 5.7097325483580056e-05 -0.0 5.7097325483580056e-05 -0.0061932747433584324 -0.0 -0.0 -0.0 -0.0009991158148348884" free_energy=-336.15501239 energy=-336.14974947 pbc="T T T"
C        0.00000000       0.00000000      13.72803000      -0.25186300      -0.14720700       0.02572500
C       -1.22999000       2.13040000      13.65117000      -0.14037400       0.08104500       0.15787500
C       -2.46001000       4.26087000      13.65113000       0.00000900      -0.16227400       0.15727200
C        2.45998000       0.00000000      13.72805000       0.25364800      -0.14644400       0.02541500
C        1.22999000       2.13040000      13.72803000       0.00155300       0.29172300       0.02572500
C       -0.00004000       4.26087000      13.64069000       0.03374800       0.01917500       0.11636100
C        4.92002000       0.00000000      13.64069000       0.00026800      -0.03881400       0.11636100
C        3.69004000       2.13040000      13.65113000       0.14053800       0.08113000       0.15727200
C        2.46001000       4.26087000      13.64059000      -0.03212100       0.01854500       0.11674700
C        0.00000000       1.42027000      13.72808000      -0.25390200       0.14659100       0.02463700
C       -1.23002000       3.55073000      13.64071000      -0.03372200      -0.01876900       0.11529700
C       -2.46001000       5.68113000      13.72805000      -0.00096100      -0.29184100       0.02461800
C        2.45998000       1.42027000      13.72805000       0.25226100       0.14675300       0.02461800
C        1.22995000       3.55073000      13.65123000      -0.00035000       0.16256500       0.15586900
C       -0.00004000       5.68113000      13.65120000       0.14038200      -0.08105000       0.15699200
C        4.92002000       1.42027000      13.64071000      -0.00060600       0.03858800       0.11529700
C        3.69000000       3.55073000      13.64063000       0.03235700      -0.01868200       0.11478800
C        2.46001000       5.68113000      13.65123000      -0.14096000      -0.08097900       0.15586900
C        0.00000000       0.00000000      10.27197000      -0.25186300      -0.14720700      -0.02572500
C       -1.22999000       2.13040000      10.34883000      -0.14037400       0.08104500      -0.15787500
C       -2.46001000       4.26087000      10.34887000       0.00000900      -0.16227400      -0.15727200
C        2.45998000       0.00000000      10.27195000       0.25364800      -0.14644400      -0.02541500
C        1.22999000       2.13040000      10.27197000       0.00155300       0.29172300      -0.02572500
C       -0.00004000       4.26087000      10.35931000       0.03374800       0.01917500      -0.11636100
C        4.92002000       0.00000000      10.35931000       0.00026800      -0.03881400      -0.11636100
C        3.69004000       2.13040000      10.34887000       0.14053800       0.08113000      -0.15727200
C        2.46001000       4.26087000      10.35941000      -0.03212100       0.01854500      -0.11674700
C        0.00000000       1.42027000      10.27192000      -0.25390200       0.14659100      -0.02463700
C       -1.23002000       3.55073000      10.35929000      -0.03372200      -0.01876900      -0.11529700
C       -2.46001000       5.68113000      10.27195000      -0.00096100      -0.29184100      -0.02461800
C        2.45998000       1.42027000      10.27195000       0.25226100       0.14675300      -0.02461800
C        1.22995000       3.55073000      10.34877000      -0.00035000       0.16256500      -0.15586900
C       -0.00004000       5.68113000      10.34880000       0.14038200      -0.08105000      -0.15699200
C        4.92002000       1.42027000      10.35929000      -0.00060600       0.03858800      -0.11529700
C        3.69000000       3.55073000      10.35937000       0.03235700      -0.01868200      -0.11478800
C        2.46001000       5.68113000      10.34877000      -0.14096000      -0.08097900      -0.15586900
Li       1.22986000       0.71021000      12.00000000       0.00019200      -0.00011100       0.00000000
37
Lattice="7.380000114 0.0 0.0 -3.690000057 6.391267579 0.0 0.0 0.0 24.0" Properties=species:S:1:pos:R:3:forces:R:3 stress="-0.005941049118072364 5.7584163195398936e-05 -0.0 5.7584163195398936e-05 -0.005874564562863455 -0.0 -0.0 -0.0 4.382787708195224e-05" free_energy=-336.202409 energy=-336.19706592 pbc="T T T"
C        0.00000000       0.00000000      13.73829000      -0.24022200      -0.14046600       0.05200700
C       -1.22999000       2.13040000      13.66838000      -0.14749000       0.08515300       0.06724200
C       -2.46001000       4.26087000      13.66830000      -0.00004300      -0.17041100       0.06707600
C        2.45998000       0.00000000      13.73830000       0.24191100      -0.13966800       0.05233500
C        1.22999000       2.13040000      13.73829000       0.00153600       0.27827200       0.05200700
C       -0.00004000       4.26087000      13.65425000       0.03313300       0.01878800       0.13894800
C        4.92002000       0.00000000      13.65425000       0.00029600      -0.03808800       0.13894800
C        3.69004000       2.13040000      13.66830000       0.14755800       0.08524300       0.06707600
C        2.46001000       4.26087000      13.65417000      -0.03151600       0.01819600       0.13843300
C        0.00000000       1.42027000      13.73827000      -0.24211500       0.13978500       0.05361000
C       -1.23002000       3.55073000      13.65419000      -0.03308300      -0.01845400       0.14024200
C       -2.46001000       5.68113000      13.73824000      -0.00096300      -0.27822700       0.05312900
C        2.45998000       1.42027000      13.73824000       0.24047000       0.13994800       0.05312900
C        1.22995000       3.55073000      13.66830000      -0.00028300       0.17028600       0.06847800
C       -0.00004000       5.68113000      13.66835000       0.14724200      -0.08501000       0.06845500
C        4.92002000       1.42027000      13.65419000      -0.00055900       0.03787800       0.14024200
C        3.69000000       3.55073000      13.65407000       0.03167100      -0.01828500       0.14019300
C        2.46001000       5.68113000      13.66830000      -0.14761400      -0.08489800       0.06847800
C        0.00000000       0.00000000      10.26171000      -0.24022200      -0.14046600      -0.05200700
C       -1.22999000       2.13040000      10.33162000      -0.14749000       0.08515300      -0.06724200
C       -2.46001000       4.26087000      10.33170000      -0.00004300      -0.17041100      -0.06707600
C        2.45998000       0.00000000      10.26170000       0.24191100      -0.13966800      -0.05233500
C        1.22999000       2.13040000      10.26171000       0.00153600       0.27827200      -0.05200700
C       -0.00004000       4.26087000      10.34575000       0.03313300       0.01878800      -0.13894800
C        4.92002000       0.00000000      10.34575000       0.00029600      -0.03808800      -0.13894800
C        3.69004000       2.13040000      10.33170000       0.14755800       0.08524300      -0.06707600
C        2.46001000       4.26087000      10.34583000      -0.03151600       0.01819600      -0.13843300
C        0.00000000       1.42027000      10.26173000      -0.24211500       0.13978500      -0.05361000
C       -1.23002000       3.55073000      10.34581000      -0.03308300      -0.01845400      -0.14024200
C       -2.46001000       5.68113000      10.26176000      -0.00096300      -0.27822700      -0.05312900
C        2.45998000       1.42027000      10.26176000       0.24047000       0.13994800      -0.05312900
C        1.22995000       3.55073000      10.33170000      -0.00028300       0.17028600      -0.06847800
C       -0.00004000       5.68113000      10.33165000       0.14724200      -0.08501000      -0.06845500
C        4.92002000       1.42027000      10.34581000      -0.00055900       0.03787800      -0.14024200
C        3.69000000       3.55073000      10.34593000       0.03167100      -0.01828500      -0.14019300
C        2.46001000       5.68113000      10.33170000      -0.14761400      -0.08489800      -0.06847800
Li       1.22987000       0.71020000      12.00000000       0.00014100      -0.00008200      -0.00000000
37
Lattice="7.380000114 0.0 0.0 -3.690000057 6.391267579 0.0 0.0 0.0 24.0" Properties=species:S:1:pos:R:3:forces:R:3 stress="-0.006333209377960734 5.7172223593090644e-05 -0.0 5.7172223593090644e-05 -0.006267192935936268 -0.0 -0.0 -0.0 0.001613492524132081" free_energy=-336.34949453 energy=-336.34405601 pbc="T T T"
C        0.00000000       0.00000000      13.79662000      -0.21831800      -0.12786000      -0.04893800
C       -1.22999000       2.13040000      13.72857000      -0.14594200       0.08425900       0.09393800
C       -2.46001000       4.26087000      13.72838000       0.00005500      -0.16855400       0.09431100
C        2.45998000       0.00000000      13.79667000       0.21995200      -0.12699000      -0.04817100
C        1.22999000       2.13040000      13.79662000       0.00157100       0.25299800      -0.04893800
C       -0.00004000       4.26087000      13.71449000       0.03143400       0.01788600       0.15610000
C        4.92002000       0.00000000      13.71449000       0.00022800      -0.03616500       0.15610000
C        3.69004000       2.13040000      13.72838000       0.14600000       0.08422900       0.09431100
C        2.46001000       4.26087000      13.71435000      -0.02980700       0.01720900       0.15459100
C        0.00000000       1.42027000      13.79668000      -0.21987100       0.12694200      -0.04834000
C       -1.23002000       3.55073000      13.71448000      -0.03132600      -0.01750300       0.15570400
C       -2.46001000       5.68113000      13.79661000      -0.00133200      -0.25284900      -0.04889100
C        2.45998000       1.42027000      13.79661000       0.21830700       0.12757800      -0.04889100
C        1.22995000       3.55073000      13.72841000      -0.00023400       0.16876800       0.09460400
C       -0.00004000       5.68113000      13.72861000       0.14587700      -0.08422200       0.09348000
C        4.92002000       1.42027000      13.71448000      -0.00050500       0.03588000       0.15570400
C        3.69000000       3.55073000      13.71426000       0.03009400      -0.01737500       0.15599800
C        2.46001000       5.68113000      13.72841000      -0.14627500      -0.08418100       0.09460400
C        0.00000000       0.00000000      10.20338000      -0.21831800      -0.12786000       0.04893800
C       -1.22999000       2.13040000      10.27143000      -0.14594200       0.08425900      -0.09393800
C       -2.46001000       4.26087000      10.27162000       0.00005500      -0.16855400      -0.09431100
C        2.45998000       0.00000000      10.20333000       0.21995200      -0.12699000       0.04817100
C        1.22999000       2.13040000      10.20338000       0.00157100       0.25299800       0.04893800
C       -0.00004000       4.26087000      10.28551000       0.03143400       0.01788600      -0.15610000
C        4.92002000       0.00000000      10.28551000       0.00022800      -0.03616500      -0.15610000
C        3.69004000       2.13040000      10.27162000       0.14600000       0.08422900      -0.09431100
C        2.46001000       4.26087000      10.28565000      -0.02980700       0.01720900      -0.15459100
C        0.00000000       1.42027000      10.20332000      -0.21987100       0.12694200       0.04834000
C       -1.23002000       3.55073000      10.28552000      -0.03132600      -0.01750300      -0.15570400
C       -2.46001000       5.68113000      10.20339000      -0.00133200      -0.25284900       0.04889100
C        2.45998000       1.42027000      10.20339000       0.21830700       0.12757800       0.04889100
C        1.22995000       3.55073000      10.27159000      -0.00023400       0.16876800      -0.09460400
C       -0.00004000       5.68113000      10.27139000       0.14587700      -0.08422200      -0.09348000
C        4.92002000       1.42027000      10.28552000      -0.00050500       0.03588000      -0.15570400
C        3.69000000       3.55073000      10.28574000       0.03009400      -0.01737500      -0.15599800
C        2.46001000       5.68113000      10.27159000      -0.14627500      -0.08418100      -0.09460400
Li       1.22989000       0.71019000      12.00000000       0.00018000      -0.00010400       0.00000000
37
Lattice="7.380000114 0.0 0.0 -3.690000057 6.391267579 0.0 0.0 0.0 24.0" Properties=species:S:1:pos:R:3:forces:R:3 stress="-0.006193424539577453 5.729705377560831e-05 -0.0 5.729705377560831e-05 -0.006127264542843091 -0.0 -0.0 -0.0 0.0005169155442965256" free_energy=-336.25953979 energy=-336.25346828 pbc="T T T"
C        0.00000000       0.00000000      13.75558000      -0.22844100      -0.13369900       0.01006300
C       -1.22999000       2.13040000      13.68852000      -0.14895900       0.08600100       0.11187900