37
Lattice="7.380000114 0.0 0.0 -3.690000057 6.391267579 0.0 0.0 0.0 24.0" Properties=species:S:1:pos:R:3:forces:R:3 stress="-0.006665307595530732 5.119909935962037e-05 -0.0 5.119909935962037e-05 -0.0066061880210903645 -0.0 -0.0 -0.0 -0.003397677839838817" free_energy=-336.03083152 energy=-336.02577233 pbc="T T T"
C        0.00000000       0.00000000      13.65000000      -0.23634800      -0.13820300       0.28328500
C       -1.22999000       2.13040000      13.65000000      -0.18121900       0.10462700       0.02121300
C       -2.46001000       4.26087000      13.65000000      -0.00153600      -0.20680000       0.02206800
C        2.45998000       0.00000000      13.65000000       0.23809200      -0.13746300       0.28387300
C        1.22999000       2.13040000      13.65000000       0.00151400       0.27378500       0.28328500
C       -0.00004000       4.26087000      13.65000000       0.03750600       0.02128300       0.06796600
C        4.92002000       0.00000000      13.65000000       0.00032100      -0.04312200       0.06796600
C        3.69004000       2.13040000      13.65000000       0.17832600       0.10473000       0.02206800
C        2.46001000       4.26087000      13.65000000      -0.03581800       0.02067900       0.06713000
C        0.00000000       1.42027000      13.65000000      -0.23760200       0.13718000       0.28236000
C       -1.23002000       3.55073000      13.65000000      -0.03738800      -0.02035800       0.06899800
C       -2.46001000       5.68113000      13.65000000      -0.00166200      -0.27404700       0.28403500
C        2.45998000       1.42027000      13.65000000       0.23650100       0.13846200       0.28403500
C        1.22995000       3.55073000      13.65000000       0.00073200       0.20655300       0.02133000
C       -0.00004000       5.68113000      13.65000000       0.18178300      -0.10495300       0.02308000
C        4.92002000       1.42027000      13.65000000      -0.00106300       0.04255800       0.06899800
C        3.69000000       3.55073000      13.65000000       0.03661100      -0.02113800       0.06899900
C        2.46001000       5.68113000      13.65000000      -0.17851400      -0.10391100       0.02133000
C        0.00000000       0.00000000      10.35000000      -0.23634800      -0.13820300      -0.28328500
C       -1.22999000       2.13040000      10.35000000      -0.18121900       0.10462700      -0.02121300
C       -2.46001000       4.26087000      10.35000000      -0.00153600      -0.20680000      -0.02206800
C        2.45998000       0.00000000      10.35000000       0.23809200      -0.13746300      -0.28387300
C        1.22999000       2.13040000      10.35000000       0.00151400       0.27378500      -0.28328500
C       -0.00004000       4.26087000      10.35000000       0.03750600       0.02128300      -0.06796600
C        4.92002000       0.00000000      10.35000000       0.00032100      -0.04312200      -0.06796600
C        3.69004000       2.13040000      10.35000000       0.17832600       0.10473000      -0.02206800
C        2.46001000       4.26087000      10.35000000      -0.03581800       0.02067900      -0.06713000
C        0.00000000       1.42027000      10.35000000      -0.23760200       0.13718000      -0.28236000
C       -1.23002000       3.55073000      10.35000000      -0.03738800      -0.02035800      -0.06899800
C       -2.46001000       5.68113000      10.35000000      -0.00166200      -0.27404700      -0.28403500
C        2.45998000       1.42027000      10.35000000       0.23650100       0.13846200      -0.28403500
C        1.22995000       3.55073000      10.35000000       0.00073200       0.20655300      -0.02133000
C       -0.00004000       5.68113000      10.35000000       0.18178300      -0.10495300      -0.02308000
C        4.92002000       1.42027000      10.35000000      -0.00106300       0.04255800      -0.06899800
C        3.69000000       3.55073000      10.35000000       0.03661100      -0.02113800      -0.06899900
C        2.46001000       5.68113000      10.35000000      -0.17851400      -0.10391100      -0.02133000
Li       1.22995000       0.71016000      12.00000000      -0.00047300       0.00027300       0.00000000
37
Lattice="7.380000114 0.0 0.0 -3.690000057 6.391267579 0.0 0.0 0.0 24.0" Properties=species:S:1:pos:R:3:forces:R:3 stress="-0.0065178144933769845 5.7771408469175435e-05 -0.0 5.7771408469175435e-05 -0.006451105243839544 -0.0 -0.0 -0.0 -0.0024840707000285296" free_energy=-336.07353848 energy=-336.06844726 pbc="T T T"
C        0.00000000       0.00000000      13.66367000      -0.22894400      -0.13391800       0.20554900
C       -1.22999000       2.13040000      13.65102000      -0.17912000       0.10341500       0.08801800
C       -2.46001000       4.26087000      13.65106000       0.00003700      -0.20709400       0.08804700
C        2.45998000       0.00000000      13.66369000       0.23061300      -0.13314400       0.20596300
C        1.22999000       2.13040000      13.66367000       0.00150500       0.26523000       0.20554900
C       -0.00004000       4.26087000      13.65328000       0.03618000       0.02049700       0.02152100
C        4.92002000       0.00000000      13.65328000       0.00033900      -0.04158100       0.02152100
C        3.69004000       2.13040000      13.65106000       0.17936700       0.10351400       0.08804700
C        2.46001000       4.26087000      13.65324000      -0.03448000       0.01990700       0.02167400
C        0.00000000       1.42027000      13.66362000      -0.23065800       0.13317100       0.20617700
C       -1.23002000       3.55073000      13.65333000      -0.03604600      -0.02021400       0.02049400
C       -2.46001000       5.68113000      13.66370000      -0.00126400      -0.26502900       0.20530400
C        2.45998000       1.42027000      13.66370000       0.22889000       0.13360900       0.20530400
C        1.22995000       3.55073000      13.65103000      -0.00032100       0.20715800       0.08752800
C       -0.00004000       5.68113000      13.65111000       0.17913900      -0.10342600       0.08680300
C        4.92002000       1.42027000      13.65333000      -0.00051700       0.04132300       0.02049400
C        3.69000000       3.55073000      13.65333000       0.03471600      -0.02004300       0.02033700
C        2.46001000       5.68113000      13.65103000      -0.17956500      -0.10330100       0.08752800
C        0.00000000       0.00000000      10.33633000      -0.22894400      -0.13391800      -0.20554900
C       -1.22999000       2.13040000      10.34898000      -0.17912000       0.10341500      -0.08801800
C       -2.46001000       4.26087000      10.34894000       0.00003700      -0.20709400      -0.08804700
C        2.45998000       0.00000000      10.33631000       0.23061300      -0.13314400      -0.20596300
C        1.22999000       2.13040000      10.33633000       0.00150500       0.26523000      -0.20554900
C       -0.00004000       4.26087000      10.34672000       0.03618000       0.02049700      -0.02152100
C        4.92002000       0.00000000      10.34672000       0.00033900      -0.04158100      -0.02152100
C        3.69004000       2.13040000      10.34894000       0.17936700       0.10351400      -0.08804700
C        2.46001000       4.26087000      10.34676000      -0.03448000       0.01990700      -0.02167400
C        0.00000000       1.42027000      10.33638000      -0.23065800       0.13317100      -0.20617700
C       -1.23002000       3.55073000      10.34667000      -0.03604600      -0.02021400      -0.02049400
C       -2.46001000       5.68113000      10.33630000      -0.00126400      -0.26502900      -0.20530400
C        2.45998000       1.42027000      10.33630000       0.22889000       0.13360900      -0.20530400
C        1.22995000       3.55073000      10.34897000      -0.00032100       0.20715800      -0.08752800
C       -0.00004000       5.68113000      10.34889000       0.17913900      -0.10342600      -0.08680300
C        4.92002000       1.42027000      10.34667000      -0.00051700       0.04132300      -0.02049400
C        3.69000000       3.55073000      10.34667000       0.03471600      -0.02004300      -0.02033700
C        2.46001000       5.68113000      10.34897000      -0.17956500      -0.10330100      -0.08752800
Li       1.22993000       0.71017000      12.00000000       0.00025800      -0.00014900      -0.00000000
37
Lattice="7.380000114 0.0 0.0 -3.690000057 6.391267579 0.0 0.0 0.0 24.0" Properties=species:S:1:pos:R:3:forces:R:3 stress="-0.006460517439601375 5.754671414064364e-05 -0.0 5.754671414064364e-05 -0.006394070333447222 -0.0 -0.0 -0.0 -0.001662051465131453" free_energy=-336.12392332 energy=-336.11878583 pbc="T T T"
C        0.00000000       0.00000000      13.68240000      -0.22361800      -0.13084400       0.18000800
C       -1.22999000       2.13040000      13.65904000      -0.17723800       0.10232800       0.03893300
C       -2.46001000       4.26087000      13.65909000       0.00002300      -0.20497600       0.03812800
C        2.45998000       0.00000000      13.68246000       0.22532300      -0.13009000       0.17932200
C        1.22999000       2.13040000      13.68240000       0.00150500       0.25908100       0.18000800
C       -0.00004000       4.26087000      13.65524000       0.03568100       0.02021100       0.06378700
C        4.92002000       0.00000000      13.65524000       0.00033800      -0.04100600       0.06378700
C        3.69004000       2.13040000      13.65909000       0.17752600       0.10246900       0.03812800
C        2.46001000       4.26087000      13.65521000      -0.03399800       0.01962800       0.06388900
C        0.00000000       1.42027000      13.68241000      -0.22521000       0.13002500       0.18000000
C       -1.23002000       3.55073000      13.65520000      -0.03556000      -0.01991800       0.06535800
C       -2.46001000       5.68113000      13.68241000      -0.00133100      -0.25885200       0.18051400
C        2.45998000       1.42027000      13.68241000       0.22350700       0.13057900       0.18051400
C        1.22995000       3.55073000      13.65900000      -0.00029900       0.20494700       0.03971900
C       -0.00004000       5.68113000      13.65902000       0.17724100      -0.10233000       0.04013600
C        4.92002000       1.42027000      13.65520000      -0.00053000       0.04075500       0.06535800
C        3.69000000       3.55073000      13.65518000       0.03421200      -0.01975200       0.06535000
C        2.46001000       5.68113000      13.65900000      -0.17763900      -0.10221400       0.03971900
C        0.00000000       0.00000000      10.31760000      -0.22361800      -0.13084400      -0.18000800
C       -1.22999000       2.13040000      10.34096000      -0.17723800       0.10232800      -0.03893300
C       -2.46001000       4.26087000      10.34091000       0.00002300      -0.20497600      -0.03812800
C        2.45998000       0.00000000      10.31754000       0.22532300      -0.13009000      -0.17932200
C        1.22999000       2.13040000      10.31760000       0.00150500       0.25908100      -0.18000800
C       -0.00004000       4.26087000      10.34476000       0.03568100       0.02021100      -0.06378700
C        4.92002000       0.00000000      10.34476000       0.00033800      -0.04100600      -0.06378700
C        3.69004000       2.13040000      10.34091000       0.17752600       0.10246900      -0.03812800
C        2.46001000       4.26087000      10.34479000      -0.03399800       0.01962800      -0.06388900
C        0.00000000       1.42027000      10.31759000      -0.22521000       0.13002500      -0.18000000
C       -1.23002000       3.55073000      10.34480000      -0.03556000      -0.01991800      -0.06535800
C       -2.46001000       5.68113000      10.31759000      -0.00133100      -0.25885200      -0.18051400
C        2.45998000       1.42027000      10.31759000       0.22350700       0.13057900      -0.18051400
C        1.22995000       3.55073000      10.34100000      -0.00029900       0.20494700      -0.03971900
C       -0.00004000       5.68113000      10.34098000       0.17724100      -0.10233000      -0.04013600
C        4.92002000       1.42027000      10.34480000      -0.00053000       0.04075500      -0.06535800
C        3.69000000       3.55073000      10.34482000       0.03421200      -0.01975200      -0.06535000
C        2.46001000       5.68113000      10.34100000      -0.17763900      -0.10221400      -0.03971900
Li       1.22995000       0.71015000      12.00000000       0.00013600      -0.00007800      -0.00000000
37
Lattice="7.380000114 0.0 0.0 -3.690000057 6.391267579 0.0 0.0 0.0 24.0" Properties=species:S:1:pos:R:3:forces:R:3 stress="-0.005939757125683307 5.7390676412496555e-05 -0.0 5.7390676412496555e-05 -0.005873491023293804 -0.0 -0.0 -0.0 0.00036849245728302166" free_energy=-336.22946357 energy=-336.22395352 pbc="T T T"
C        0.00000000       0.00000000      13.73916000      -0.22774800      -0.13320500       0.07313400
C       -1.22999000       2.13040000      13.67814000      -0.15477700       0.08936100       0.07750400
C       -2.46001000       4.26087000      13.67808000      -0.00001500      -0.17892900       0.07717000
C        2.45998000       0.00000000      13.73920000       0.22958300      -0.13255000       0.07234000
C        1.22999000       2.13040000      13.73916000       0.00148500       0.26383800       0.07313400
C       -0.00004000       4.26087000      13.66732000       0.03344200       0.01894400       0.09635700
C        4.92002000       0.00000000      13.66732000       0.00031500      -0.03843300       0.09635700
C        3.69004000       2.13040000      13.67808000       0.15495000       0.08947800       0.07717000
C        2.46001000       4.26087000      13.66733000      -0.03181900       0.01837100       0.09583300
C        0.00000000       1.42027000      13.73927000      -0.22976400       0.13265400       0.07111300
C       -1.23002000       3.55073000      13.66733000      -0.03342300      -0.01866800       0.09610500
C       -2.46001000       5.68113000      13.73921000      -0.00098300      -0.26398300       0.07164400
C        2.45998000       1.42027000      13.73921000       0.22812400       0.13284300       0.07164400
C        1.22995000       3.55073000      13.67814000      -0.00027300       0.17889200       0.07660100
C       -0.00004000       5.68113000      13.67810000       0.15463500      -0.08927800       0.07745800
C        4.92002000       1.42027000      13.66733000      -0.00054400       0.03827900       0.09610500
C        3.69000000       3.55073000      13.66729000       0.03191900      -0.01842900       0.09582800
C        2.46001000       5.68113000      13.67814000      -0.15506100      -0.08921000       0.07660100
C        0.00000000       0.00000000      10.26084000      -0.22774800      -0.13320500      -0.07313400
C       -1.22999000       2.13040000      10.32186000      -0.15477700       0.08936100      -0.07750400
C       -2.46001000       4.26087000      10.32192000      -0.00001500      -0.17892900      -0.07717000
C        2.45998000       0.00000000      10.26080000       0.22958300      -0.13255000      -0.07234000
C        1.22999000       2.13040000      10.26084000       0.00148500       0.26383800      -0.07313400
C       -0.00004000       4.26087000      10.33268000       0.03344200       0.01894400      -0.09635700
C        4.92002000       0.00000000      10.33268000       0.00031500      -0.03843300      -0.09635700
C        3.69004000       2.13040000      10.32192000       0.15495000       0.08947800      -0.07717000
C        2.46001000       4.26087000      10.33267000      -0.03181900       0.01837100      -0.09583300
C        0.00000000       1.42027000      10.26073000      -0.22976400       0.13265400      -0.07111300
C       -1.23002000       3.55073000      10.33267000      -0.03342300      -0.01866800      -0.09610500
C       -2.46001000       5.68113000      10.26079000      -0.00098300      -0.26398300      -0.07164400
C        2.45998000       1.42027000      10.26079000       0.22812400       0.13284300      -0.07164400
C        1.22995000       3.55073000      10.32186000      -0.00027300       0.17889200      -0.07660100
C       -0.00004000       5.68113000      10.32190000       0.15463500      -0.08927800      -0.07745800
C        4.92002000       1.42027000      10.33267000      -0.00054400       0.03827900      -0.09610500
C        3.69000000       3.55073000      10.33271000       0.03191900      -0.01842900      -0.09582800
C        2.46001000       5.68113000      10.32186000      -0.15506100      -0.08921000      -0.07660100
Li       1.23001000       0.71012000      12.00000000      -0.00009200       0.00005300      -0.00000000
37
Lattice="7.380000114 0.0 0.0 -3.690000057 6.391267579 0.0 0.0 0.0 24.0" Properties=species:S:1:pos:R:3:forces:R:3 stress="-0.006161592843035448 5.725336321172713e-05 -0.0 5.725336321172713e-05 -0.006095482778374094 -0.0 -0.0 -0.0 0.00045026870985034407" free_energy=-336.25047883 energy=-336.24459957 pbc="T T T"
C        0.00000000       0.00000000      13.75161000      -0.22967300      -0.13434600       0.00941800
C       -1.22999000       2.13040000      13.68516000      -0.14990500       0.08654800       0.09689000
C       -2.46001000       4.26087000      13.68506000      -0.00001400      -0.17327600       0.09706600
C        2.45998000       0.00000000      13.75161000       0.23149500      -0.13365400       0.00923200
C        1.22999000       2.13040000      13.75161000       0.00151100       0.26607500       0.00941800
C       -0.00004000       4.26087000      13.67417000       0.03326800       0.01885600       0.10292400
C        4.92002000       0.00000000      13.67417000       0.00030400      -0.03823800       0.10292400
C        3.69004000       2.13040000      13.68506000       0.15005500       0.08665000       0.09706600
C        2.46001000       4.26087000      13.67416000      -0.03162100       0.01825600       0.10226900
C        0.00000000       1.42027000      13.75163000      -0.23157300       0.13369900       0.00974300
C       -1.23002000       3.55073000      13.67418000      -0.03329300      -0.01858400       0.10294000
C       -2.46001000       5.68113000      13.75158000      -0.00103100      -0.26612700       0.00948900
C        2.45998000       1.42027000      13.75158000       0.22995700       0.13395700       0.00948900
C        1.22995000       3.55073000      13.68510000      -0.00027500       0.17314000       0.09700800
C       -0.00004000       5.68113000      13.68510000       0.14972500      -0.08644400       0.09724600
C        4.92002000       1.42027000      13.67418000      -0.00055200       0.03812400       0.10294000
C        3.69000000       3.55073000      13.67412000       0.03175500      -0.01833400       0.10259200
C        2.46001000       5.68113000      13.68510000      -0.15008200      -0.08633200       0.09700800
C        0.00000000       0.00000000      10.24839000      -0.22967300      -0.13434600      -0.00941800
C       -1.22999000       2.13040000      10.31484000      -0.14990500       0.08654800      -0.09689000
C       -2.46001000       4.26087000      10.31494000      -0.00001400      -0.17327600      -0.09706600
C        2.45998000       0.00000000      10.24839000       0.23149500      -0.13365400      -0.00923200
C        1.22999000       2.13040000      10.24839000       0.00151100       0.26607500      -0.00941800
C       -0.00004000       4.26087000      10.32583000       0.03326800       0.01885600      -0.10292400
C        4.92002000       0.00000000      10.32583000       0.00030400      -0.03823800      -0.10292400
C        3.69004000       2.13040000      10.31494000       0.15005500       0.08665000      -0.09706600
C        2.46001000       4.26087000      10.32584000      -0.03162100       0.01825600      -0.10226900
C        0.00000000       1.42027000      10.24837000      -0.23157300       0.13369900      -0.00974300
C       -1.23002000       3.55073000      10.32582000      -0.03329300      -0.01858400      -0.10294000
C       -2.46001000       5.68113000      10.24842000      -0.00103100      -0.26612700      -0.00948900
C        2.45998000       1.42027000      10.24842000       0.22995700       0.13395700      -0.00948900
C        1.22995000       3.55073000      10.31490000      -0.00027500       0.17314000      -0.09700800
C       -0.00004000       5.68113000      10.31490000       0.14972500      -0.08644400      -0.09724600
C        4.92002000       1.42027000      10.32582000      -0.00055200       0.03812400      -0.10294000
C        3.69000000       3.55073000      10.32588000       0.03175500      -0.01833400      -0.10259200
C        2.46001000       5.68113000      10.31490000      -0.15008200      -0.08633200      -0.09700800
Li       1.23001000       0.71012000      12.00000000      -0.00010500       0.00006100      -0.00000000
37
Lattice="7.380000114 0.0 0.0 -3.690000057 6.391267579 0.0 0.0 0.0 24.0" Properties=species:S:1:pos:R:3:forces:R:3 stress="-0.006308343205603215 5.7390676412496555e-05 -0.0 5.7390676412496555e-05 -0.006242077103213714 -0.0 -0.0 -0.0 0.0001879692888351002" free_energy=-336.25243513 energy=-336.24657553 pbc="T T T"
C        0.00000000       0.00000000      13.74772000      -0.22544600      -0.13190700       0.03013300
C       -1.22999000       2.13040000      13.68614000      -0.15430900       0.08909000       0.08922300
C       -2.46001000       4.26087000      13.68606000      -0.00001400      -0.17838600       0.08920800
C        2.45998000       0.00000000      13.74771000       0.22726000      -0.13120800       0.03006800
C        1.22999000       2.13040000      13.74772000       0.00151200       0.26119600       0.03013300
C       -0.00004000       4.26087000      13.67581000       0.03342400       0.01895300       0.09049800
C        4.92002000       0.00000000      13.67581000       0.00029800      -0.03842200       0.09049800
C        3.69004000       2.13040000      13.68606000       0.15448000       0.08920500       0.08920800
C        2.46001000       4.26087000      13.67578000      -0.03177800       0.01834700       0.08997600
C        0.00000000       1.42027000      13.74774000      -0.22737700       0.13127600       0.03032700
C       -1.23002000       3.55073000      13.67581000      -0.03346200      -0.01867400       0.09051900
C       -2.46001000       5.68113000      13.74769000      -0.00100800      -0.26125100       0.03018700
C        2.45998000       1.42027000      13.74769000       0.22574600       0.13149900       0.03018700
C        1.22995000       3.55073000      13.68610000      -0.00027700       0.17825000       0.08919300
C       -0.00004000       5.68113000      13.68610000       0.15415300      -0.08900000       0.08940200
C        4.92002000       1.42027000      13.67581000      -0.00055900       0.03831500       0.09051900
C        3.69000000       3.55073000      13.67575000       0.03191600      -0.01842700       0.09024300
C        2.46001000       5.68113000      13.68610000      -0.15450800      -0.08888500       0.08919300
C        0.00000000       0.00000000      10.25228000      -0.22544600      -0.13190700      -0.03013300
C       -1.22999000       2.13040000      10.31386000      -0.15430900       0.08909000      -0.08922300
C       -2.46001000       4.26087000      10.31394000      -0.00001400      -0.17838600      -0.08920800
C        2.45998000       0.00000000      10.25229000       0.22726000      -0.13120800      -0.03006800
C        1.22999000       2.13040000      10.25228000       0.00151200       0.26119600      -0.03013300
C       -0.00004000       4.26087000      10.32419000       0.03342400       0.01895300      -0.09049800
C        4.92002000       0.00000000      10.32419000       0.00029800      -0.03842200      -0.09049800
C        3.69004000       2.13040000      10.31394000       0.15448000       0.08920500      -0.08920800
C        2.46001000       4.26087000      10.32422000      -0.03177800       0.01834700      -0.08997600
C        0.00000000       1.42027000      10.25226000      -0.22737700       0.13127600      -0.03032700
C       -1.23002000       3.55073000      10.32419000      -0.03346200      -0.01867400      -0.09051900
C       -2.46001000       5.68113000      10.25231000      -0.00100800      -0.26125100      -0.03018700
C        2.45998000       1.42027000      10.25231000       0.22574600       0.13149900      -0.03018700
C        1.22995000       3.55073000      10.31390000      -0.00027700       0.17825000      -0.08919300
C       -0.00004000       5.68113000      10.31390000       0.15415300      -0.08900000      -0.08940200
C        4.92002000       1.42027000      10.32419000      -0.00055900       0.03831500      -0.09051900
C        3.69000000       3.55073000      10.32425000       0.03191600      -0.01842700      -0.09024300
C        2.46001000       5.68113000      10.31390000      -0.15450800      -0.08888500      -0.08919300
Li       1.23001000       0.71012000      12.00000000      -0.00010200       0.00005900      -0.00000000
37
Lattice="7.380000114 0.0 0.0 -3.690000057 6.391267579 0.0 0.0 0.0 24.0" Properties=species:S:1:pos:R:3:forces:R:3 stress="-0.006366470380092567 5.7527989613265995e-05 -0.0 5.7527989613265995e-05 -0.0063000482399749175 -0.0 -0.0 -0.0 0.00039184818443207685" free_energy=-336.26230585 energy=-336.25631897 pbc="T T T"
C        0.00000000       0.00000000      13.74381000      -0.21724200      -0.12718200       0.07515300
C       -1.22999000       2.13040000      13.69160000      -0.16166300       0.09333600       0.07331500
C       -2.46001000       4.26087000      13.69152000      -0.00001200      -0.18691900       0.07328200
C        2.45998000       0.00000000      13.74380000       0.21904900      -0.12646800       0.07524900
C        1.22999000       2.13040000      13.74381000       0.00152100       0.25172800       0.07515300
C       -0.00004000       4.26087000      13.68210000       0.03369700       0.01910900       0.09925800
C        4.92002000       0.00000000      13.68210000       0.00029900      -0.03873700       0.09925800
C        3.69004000       2.13040000      13.69152000       0.16187100       0.09347000       0.07328200
C        2.46001000       4.26087000      13.68203000      -0.03203700       0.01849700       0.09904400
C        0.00000000       1.42027000      13.74384000      -0.21920200       0.12655600       0.07527000
C       -1.23002000       3.55073000      13.68210000      -0.03373700      -0.01882600       0.09929300
C       -2.46001000       5.68113000      13.74379000      -0.00099500      -0.25177600       0.07516700
C        2.45998000       1.42027000      13.74379000       0.21754700       0.12675000       0.07516700
C        1.22995000       3.55073000      13.69154000      -0.00029600       0.18683500       0.07316000
C       -0.00004000       5.68113000      13.69157000       0.16157100      -0.09328300       0.07337900
C        4.92002000       1.42027000      13.68210000      -0.00056500       0.03863000       0.09929300
C        3.69000000       3.55073000      13.68202000       0.03218200      -0.01858000       0.09903200
C        2.46001000       5.68113000      13.69154000      -0.16195200      -0.09316100       0.07316000
C        0.00000000       0.00000000      10.25619000      -0.21724200      -0.12718200      -0.07515300
C       -1.22999000       2.13040000      10.30840000      -0.16166300       0.09333600      -0.07331500
C       -2.46001000       4.26087000      10.30848000      -0.00001200      -0.18691900      -0.07328200
C        2.45998000       0.00000000      10.25620000       0.21904900      -0.12646800      -0.07524900
C        1.22999000       2.13040000      10.25619000       0.00152100       0.25172800      -0.07515300
C       -0.00004000       4.26087000      10.31790000       0.03369700       0.01910900      -0.09925800
C        4.92002000       0.00000000      10.31790000       0.00029900      -0.03873700      -0.09925800
C        3.69004000       2.13040000      10.30848000       0.16187100       0.09347000      -0.07328200
C        2.46001000       4.26087000      10.31797000      -0.03203700       0.01849700      -0.09904400
C        0.00000000       1.42027000      10.25616000      -0.21920200       0.12655600      -0.07527000
C       -1.23002000       3.55073000      10.31790000      -0.03373700      -0.01882600      -0.09929300
C       -2.46001000       5.68113000      10.25621000      -0.00099500      -0.25177600      -0.07516700
C        2.45998000       1.42027000      10.25621000       0.21754700       0.12675000      -0.07516700
C        1.22995000       3.55073000      10.30846000      -0.00029600       0.18683500      -0.07316000
C       -0.00004000       5.68113000      10.30843000       0.16157100      -0.09328300      -0.07337900
C        4.92002000       1.42027000      10.31790000      -0.00056500       0.03863000      -0.09929300
C        3.69000000       3.55073000      10.31798000       0.03218200      -0.01858000      -0.09903200
C        2.46001000       5.68113000      10.30846000      -0.16195200      -0.09316100      -0.07316000
Li       1.22999000       0.71013000      12.00000000      -0.00007100       0.00004100       0.00000000
37
Lattice="7.380000114 0.0 0.0 -3.690000057 6.391267579 0.0 0.0 0.0 24.0" Properties=species:S:1:pos:R:3:forces:R:3 stress="-0.005998446035993986 5.763409526840601e-05 -0.0 5.763409526840601e-05 -0.0059318990656938185 -0.0 -0.0 -0.0 0.0004448947704929586" free_energy=-336.23208911 energy=-336.22654471 pbc="T T T"
C        0.00000000       0.00000000      13.73729000      -0.22403100      -0.13107400       0.08715300
C       -1.22999000       2.13040000      13.68187000      -0.15978400       0.09225200       0.03723300