37
Lattice="7.380000114 0.0 0.0 -3.690000057 6.391267579 0.0 0.0 0.0 24.0" Properties=species:S:1:pos:R:3:forces:R:3 stress="-0.006301252851236214 5.7172223593090644e-05 -0.0 5.7172223593090644e-05 -0.006235236409211746 -0.0 -0.0 -0.0 -0.013970220080245477" free_energy=-334.60716695 energy=-334.60142939 pbc="T T T"
C        0.00000000       0.00000000      13.50000000      -0.33352900      -0.19438300       0.67599500
C       -1.22999000       2.13040000      13.50000000      -0.18674400       0.10781700       0.23934800
C       -2.46001000       4.26087000      13.50000000       0.00012900      -0.21587100       0.23934000
C        2.45998000       0.00000000      13.50000000       0.33539900      -0.19364200       0.67591100
C        1.22999000       2.13040000      13.50000000       0.00157600       0.38603600       0.67599500
C       -0.00004000       4.26087000      13.50000000       0.04761600       0.02719300       0.28834000
C        4.92002000       0.00000000      13.50000000       0.00025900      -0.05483300       0.28834000
C        3.69004000       2.13040000      13.50000000       0.18701500       0.10782300       0.23934000
C        2.46001000       4.26087000      13.50000000      -0.04593100       0.02651800       0.28833300
C        0.00000000       1.42027000      13.50000000      -0.33556100       0.19373600       0.67602000
C       -1.23002000       3.55073000      13.50000000      -0.04768700      -0.02676500       0.28834500
C       -2.46001000       5.68113000      13.50000000      -0.00096600      -0.38606700       0.67595700
C        2.45998000       1.42027000      13.50000000       0.33386100       0.19387000       0.67595700
C        1.22995000       3.55073000      13.50000000      -0.00032300       0.21609100       0.23933900
C       -0.00004000       5.68113000      13.50000000       0.18654900      -0.10770400       0.23933000
C        4.92002000       1.42027000      13.50000000      -0.00066400       0.05468000       0.28834500
C        3.69000000       3.55073000      13.50000000       0.04620400      -0.02667600       0.28834500
C        2.46001000       5.68113000      13.50000000      -0.18730200      -0.10776500       0.23933900
C        0.00000000       0.00000000      10.50000000      -0.33352900      -0.19438300      -0.67599500
C       -1.22999000       2.13040000      10.50000000      -0.18674400       0.10781700      -0.23934800
C       -2.46001000       4.26087000      10.50000000       0.00012900      -0.21587100      -0.23934000
C        2.45998000       0.00000000      10.50000000       0.33539900      -0.19364200      -0.67591100
C        1.22999000       2.13040000      10.50000000       0.00157600       0.38603600      -0.67599500
C       -0.00004000       4.26087000      10.50000000       0.04761600       0.02719300      -0.28834000
C        4.92002000       0.00000000      10.50000000       0.00025900      -0.05483300      -0.28834000
C        3.69004000       2.13040000      10.50000000       0.18701500       0.10782300      -0.23934000
C        2.46001000       4.26087000      10.50000000      -0.04593100       0.02651800      -0.28833300
C        0.00000000       1.42027000      10.50000000      -0.33556100       0.19373600      -0.67602000
C       -1.23002000       3.55073000      10.50000000      -0.04768700      -0.02676500      -0.28834500
C       -2.46001000       5.68113000      10.50000000      -0.00096600      -0.38606700      -0.67595700
C        2.45998000       1.42027000      10.50000000       0.33386100       0.19387000      -0.67595700
C        1.22995000       3.55073000      10.50000000      -0.00032300       0.21609100      -0.23933900
C       -0.00004000       5.68113000      10.50000000       0.18654900      -0.10770400      -0.23933000
C        4.92002000       1.42027000      10.50000000      -0.00066400       0.05468000      -0.28834500
C        3.69000000       3.55073000      10.50000000       0.04620400      -0.02667600      -0.28834500
C        2.46001000       5.68113000      10.50000000      -0.18730200      -0.10776500      -0.23933900
Li       1.22995000       0.71016000      12.00000000       0.00020300      -0.00011700       0.00000000
37
Lattice="7.380000114 0.0 0.0 -3.690000057 6.391267579 0.0 0.0 0.0 24.0" Properties=species:S:1:pos:R:3:forces:R:3 stress="-0.006046112441188357 5.705363491969887e-05 -0.0 5.705363491969887e-05 -0.005980233312364659 -0.0 -0.0 -0.0 -0.012349524854582124" free_energy=-334.93259607 energy=-334.92714952 pbc="T T T"
C        0.00000000       0.00000000      13.53261000      -0.31142700      -0.18157300       0.55945000
C       -1.22999000       2.13040000      13.51155000      -0.18426400       0.10638500       0.32268700
C       -2.46001000       4.26087000      13.51155000       0.00012500      -0.21304400       0.32261200
C        2.45998000       0.00000000      13.53261000       0.31322200      -0.18083900       0.55922000
C        1.22999000       2.13040000      13.53261000       0.00153300       0.36049000       0.55945000
C       -0.00004000       4.26087000      13.51391000       0.04383600       0.02500400       0.23539000
C        4.92002000       0.00000000      13.51391000       0.00026400      -0.05046500       0.23539000
C        3.69004000       2.13040000      13.51155000       0.18456400       0.10641400       0.32261200
C        2.46001000       4.26087000      13.51391000      -0.04212800       0.02432200       0.23529100
C        0.00000000       1.42027000      13.53261000      -0.31324400       0.18085100       0.55954700
C       -1.23002000       3.55073000      13.51391000      -0.04381900      -0.02459500       0.23539100
C       -2.46001000       5.68113000      13.53261000      -0.00117700      -0.36042900       0.55928100
C        2.45998000       1.42027000      13.53261000       0.31155200       0.18123400       0.55928100
C        1.22995000       3.55073000      13.51155000      -0.00029400       0.21320600       0.32270000
C       -0.00004000       5.68113000      13.51155000       0.18415400      -0.10632100       0.32259000
C        4.92002000       1.42027000      13.51391000      -0.00061000       0.05024600       0.23539100
C        3.69000000       3.55073000      13.51391000       0.04243700      -0.02450100       0.23532400
C        2.46001000       5.68113000      13.51155000      -0.18478900      -0.10634800       0.32270000
C        0.00000000       0.00000000      10.46739000      -0.31142700      -0.18157300      -0.55945000
C       -1.22999000       2.13040000      10.48845000      -0.18426400       0.10638500      -0.32268700
C       -2.46001000       4.26087000      10.48845000       0.00012500      -0.21304400      -0.32261200
C        2.45998000       0.00000000      10.46739000       0.31322200      -0.18083900      -0.55922000
C        1.22999000       2.13040000      10.46739000       0.00153300       0.36049000      -0.55945000
C       -0.00004000       4.26087000      10.48609000       0.04383600       0.02500400      -0.23539000
C        4.92002000       0.00000000      10.48609000       0.00026400      -0.05046500      -0.23539000
C        3.69004000       2.13040000      10.48845000       0.18456400       0.10641400      -0.32261200
C        2.46001000       4.26087000      10.48609000      -0.04212800       0.02432200      -0.23529100
C        0.00000000       1.42027000      10.46739000      -0.31324400       0.18085100      -0.55954700
C       -1.23002000       3.55073000      10.48609000      -0.04381900      -0.02459500      -0.23539100
C       -2.46001000       5.68113000      10.46739000      -0.00117700      -0.36042900      -0.55928100
C        2.45998000       1.42027000      10.46739000       0.31155200       0.18123400      -0.55928100
C        1.22995000       3.55073000      10.48845000      -0.00029400       0.21320600      -0.32270000
C       -0.00004000       5.68113000      10.48845000       0.18415400      -0.10632100      -0.32259000
C        4.92002000       1.42027000      10.48609000      -0.00061000       0.05024600      -0.23539100
C        3.69000000       3.55073000      10.48609000       0.04243700      -0.02450100      -0.23532400
C        2.46001000       5.68113000      10.48845000      -0.18478900      -0.10634800      -0.32270000
Li       1.22996000       0.71015000      12.00000000       0.00012600      -0.00007300       0.00000000
37
Lattice="7.380000114 0.0 0.0 -3.690000057 6.391267579 0.0 0.0 0.0 24.0" Properties=species:S:1:pos:R:3:forces:R:3 stress="-0.006715164770428286 5.561808782074571e-05 -0.0 5.561808782074571e-05 -0.006650945883032074 -0.0 -0.0 -0.0 -0.0077042879291526365" free_energy=-335.61062643 energy=-335.60556606 pbc="T T T"
C        0.00000000       0.00000000      13.61835000      -0.28661100      -0.16690500       0.25533500
C       -1.22999000       2.13040000      13.56100000      -0.16097000       0.09293600       0.21589900
C       -2.46001000       4.26087000      13.56099000      -0.00028300      -0.18564300       0.21543100
C        2.45998000       0.00000000      13.61831000       0.28785100      -0.16619100       0.25564000
C        1.22999000       2.13040000      13.61835000       0.00123800       0.33166500       0.25533500
C       -0.00004000       4.26087000      13.54998000       0.03685700       0.01941000       0.27704200
C        4.92002000       0.00000000      13.54998000       0.00161900      -0.04162400       0.27704200
C        3.69004000       2.13040000      13.56099000       0.16063000       0.09306600       0.21543100
C        2.46001000       4.26087000      13.54997000      -0.03418700       0.01973800       0.27878800
C        0.00000000       1.42027000      13.61837000      -0.28854200       0.16659000       0.25532100
C       -1.23002000       3.55073000      13.54999000      -0.03527100      -0.02066300       0.27798100
C       -2.46001000       5.68113000      13.61832000      -0.00120900      -0.33139900       0.25548800
C        2.45998000       1.42027000      13.61832000       0.28639600       0.16674600       0.25548800
C        1.22995000       3.55073000      13.56100000      -0.00051500       0.18576200       0.21540600
C       -0.00004000       5.68113000      13.56098000       0.16030200      -0.09255100       0.21570400
C        4.92002000       1.42027000      13.54999000       0.00025900       0.04087700       0.27798100
C        3.69000000       3.55073000      13.54998000       0.03379400      -0.01951100       0.27852800
C        2.46001000       5.68113000      13.56100000      -0.16113200      -0.09243500       0.21540600
C        0.00000000       0.00000000      10.38165000      -0.28661100      -0.16690500      -0.25533500
C       -1.22999000       2.13040000      10.43900000      -0.16097000       0.09293600      -0.21589900
C       -2.46001000       4.26087000      10.43901000      -0.00028300      -0.18564300      -0.21543100
C        2.45998000       0.00000000      10.38169000       0.28785100      -0.16619100      -0.25564000
C        1.22999000       2.13040000      10.38165000       0.00123800       0.33166500      -0.25533500
C       -0.00004000       4.26087000      10.45002000       0.03685700       0.01941000      -0.27704200
C        4.92002000       0.00000000      10.45002000       0.00161900      -0.04162400      -0.27704200
C        3.69004000       2.13040000      10.43901000       0.16063000       0.09306600      -0.21543100
C        2.46001000       4.26087000      10.45003000      -0.03418700       0.01973800      -0.27878800
C        0.00000000       1.42027000      10.38163000      -0.28854200       0.16659000      -0.25532100
C       -1.23002000       3.55073000      10.45001000      -0.03527100      -0.02066300      -0.27798100
C       -2.46001000       5.68113000      10.38168000      -0.00120900      -0.33139900      -0.25548800
C        2.45998000       1.42027000      10.38168000       0.28639600       0.16674600      -0.25548800
C        1.22995000       3.55073000      10.43900000      -0.00051500       0.18576200      -0.21540600
C       -0.00004000       5.68113000      10.43902000       0.16030200      -0.09255100      -0.21570400
C        4.92002000       1.42027000      10.45001000       0.00025900       0.04087700      -0.27798100
C        3.69000000       3.55073000      10.45002000       0.03379400      -0.01951100      -0.27852800
C        2.46001000       5.68113000      10.43900000      -0.16113200      -0.09243500      -0.21540600
Li       1.22998000       0.71014000      12.00000000      -0.00045100       0.00026100       0.00000000
37
Lattice="7.380000114 0.0 0.0 -3.690000057 6.391267579 0.0 0.0 0.0 24.0" Properties=species:S:1:pos:R:3:forces:R:3 stress="-0.006558702619660645 5.6273446278963465e-05 -0.0 5.6273446278963465e-05 -0.0064937222681510755 -0.0 -0.0 -0.0 -0.003113102472753296" free_energy=-335.96434251 energy=-335.95912678 pbc="T T T"
C        0.00000000       0.00000000      13.69415000      -0.27907400      -0.16286900       0.02696600
C       -1.22999000       2.13040000      13.61055000      -0.13405700       0.07739800       0.19065200
C       -2.46001000       4.26087000      13.61049000       0.00009500      -0.15496900       0.19066400
C        2.45998000       0.00000000      13.69411000       0.28078400      -0.16211100       0.02747400
C        1.22999000       2.13040000      13.69415000       0.00151200       0.32311900       0.02696600
C       -0.00004000       4.26087000      13.59630000       0.03378000       0.01917200       0.19965800
C        4.92002000       0.00000000      13.59630000       0.00028600      -0.03884000       0.19965800
C        3.69004000       2.13040000      13.61049000       0.13425400       0.07740300       0.19066400
C        2.46001000       4.26087000      13.59642000      -0.03211300       0.01854100       0.19771500
C        0.00000000       1.42027000      13.69417000      -0.28069300       0.16205800       0.02712700
C       -1.23002000       3.55073000      13.59638000      -0.03367700      -0.01880700       0.19827900
C       -2.46001000       5.68113000      13.69412000      -0.00124100      -0.32297200       0.02724900
C        2.45998000       1.42027000      13.69412000       0.27908100       0.16256100       0.02724900
C        1.22995000       3.55073000      13.61051000      -0.00027000       0.15513000       0.19017400
C       -0.00004000       5.68113000      13.61051000       0.13395500      -0.07733900       0.18975100
C        4.92002000       1.42027000      13.59638000      -0.00055100       0.03856900       0.19827900
C        3.69000000       3.55073000      13.59641000       0.03243400      -0.01872600       0.19793600
C        2.46001000       5.68113000      13.61051000      -0.13448200      -0.07733200       0.19017400
C        0.00000000       0.00000000      10.30585000      -0.27907400      -0.16286900      -0.02696600
C       -1.22999000       2.13040000      10.38945000      -0.13405700       0.07739800      -0.19065200
C       -2.46001000       4.26087000      10.38951000       0.00009500      -0.15496900      -0.19066400
C        2.45998000       0.00000000      10.30589000       0.28078400      -0.16211100      -0.02747400
C        1.22999000       2.13040000      10.30585000       0.00151200       0.32311900      -0.02696600
C       -0.00004000       4.26087000      10.40370000       0.03378000       0.01917200      -0.19965800
C        4.92002000       0.00000000      10.40370000       0.00028600      -0.03884000      -0.19965800
C        3.69004000       2.13040000      10.38951000       0.13425400       0.07740300      -0.19066400
C        2.46001000       4.26087000      10.40358000      -0.03211300       0.01854100      -0.19771500
C        0.00000000       1.42027000      10.30583000      -0.28069300       0.16205800      -0.02712700
C       -1.23002000       3.55073000      10.40362000      -0.03367700      -0.01880700      -0.19827900
C       -2.46001000       5.68113000      10.30588000      -0.00124100      -0.32297200      -0.02724900
C        2.45998000       1.42027000      10.30588000       0.27908100       0.16256100      -0.02724900
C        1.22995000       3.55073000      10.38949000      -0.00027000       0.15513000      -0.19017400
C       -0.00004000       5.68113000      10.38949000       0.13395500      -0.07733900      -0.18975100
C        4.92002000       1.42027000      10.40362000      -0.00055100       0.03856900      -0.19827900
C        3.69000000       3.55073000      10.40359000       0.03243400      -0.01872600      -0.19793600
C        2.46001000       5.68113000      10.38949000      -0.13448200      -0.07733200      -0.19017400
Li       1.22995000       0.71015000      12.00000000      -0.00004700       0.00002700      -0.00000000
37
Lattice="7.380000114 0.0 0.0 -3.690000057 6.391267579 0.0 0.0 0.0 24.0" Properties=species:S:1:pos:R:3:forces:R:3 stress="-0.006224182696549806 5.664169531739057e-05 -0.0 5.664169531739057e-05 -0.006158777922419675 -0.0 -0.0 -0.0 -0.0015689281489732747" free_energy=-336.10870497 energy=-336.10343866 pbc="T T T"
C        0.00000000       0.00000000      13.72480000      -0.26517000      -0.15487600       0.02560300
C       -1.22999000       2.13040000      13.64165000      -0.13398600       0.07735700       0.11288400
C       -2.46001000       4.26087000      13.64158000       0.00005400      -0.15486900       0.11290000
C        2.45998000       0.00000000      13.72480000       0.26699000      -0.15414700       0.02564200
C        1.22999000       2.13040000      13.72480000       0.00154100       0.30708200       0.02560300
C       -0.00004000       4.26087000      13.62522000       0.03304800       0.01880700       0.22427700
C        4.92002000       0.00000000      13.62522000       0.00023700      -0.03802400       0.22427700
C        3.69004000       2.13040000      13.64158000       0.13414800       0.07738800       0.11290000
C        2.46001000       4.26087000      13.62523000      -0.03144800       0.01815600       0.22382800
C        0.00000000       1.42027000      13.72484000      -0.26700300       0.15415400       0.02570100
C       -1.23002000       3.55073000      13.62522000      -0.03308900      -0.01841100       0.22503800
C       -2.46001000       5.68113000      13.72478000      -0.00097800      -0.30707100       0.02582700
C        2.45998000       1.42027000      13.72478000       0.26544200       0.15438300       0.02582700
C        1.22995000       3.55073000      13.64157000      -0.00033900       0.15497000       0.11342800
C       -0.00004000       5.68113000      13.64154000       0.13380400      -0.07725200       0.11385800
C        4.92002000       1.42027000      13.62522000      -0.00060000       0.03786200       0.22503800
C        3.69000000       3.55073000      13.62523000       0.03172700      -0.01831700       0.22409200
C        2.46001000       5.68113000      13.64157000      -0.13437700      -0.07719200       0.11342800
C        0.00000000       0.00000000      10.27520000      -0.26517000      -0.15487600      -0.02560300
C       -1.22999000       2.13040000      10.35835000      -0.13398600       0.07735700      -0.11288400
C       -2.46001000       4.26087000      10.35842000       0.00005400      -0.15486900      -0.11290000
C        2.45998000       0.00000000      10.27520000       0.26699000      -0.15414700      -0.02564200
C        1.22999000       2.13040000      10.27520000       0.00154100       0.30708200      -0.02560300
C       -0.00004000       4.26087000      10.37478000       0.03304800       0.01880700      -0.22427700
C        4.92002000       0.00000000      10.37478000       0.00023700      -0.03802400      -0.22427700
C        3.69004000       2.13040000      10.35842000       0.13414800       0.07738800      -0.11290000
C        2.46001000       4.26087000      10.37477000      -0.03144800       0.01815600      -0.22382800
C        0.00000000       1.42027000      10.27516000      -0.26700300       0.15415400      -0.02570100
C       -1.23002000       3.55073000      10.37478000      -0.03308900      -0.01841100      -0.22503800
C       -2.46001000       5.68113000      10.27522000      -0.00097800      -0.30707100      -0.02582700
C        2.45998000       1.42027000      10.27522000       0.26544200       0.15438300      -0.02582700
C        1.22995000       3.55073000      10.35843000      -0.00033900       0.15497000      -0.11342800
C       -0.00004000       5.68113000      10.35846000       0.13380400      -0.07725200      -0.11385800
C        4.92002000       1.42027000      10.37478000      -0.00060000       0.03786200      -0.22503800
C        3.69000000       3.55073000      10.37477000       0.03172700      -0.01831700      -0.22409200
C        2.46001000       5.68113000      10.35843000      -0.13437700      -0.07719200      -0.11342800
Li       1.22995000       0.71016000      12.00000000      -0.00000100       0.00000000      -0.00000000
37
Lattice="7.380000114 0.0 0.0 -3.690000057 6.391267579 0.0 0.0 0.0 24.0" Properties=species:S:1:pos:R:3:forces:R:3 stress="-0.006038778667965445 5.716598208396476e-05 -0.0 5.716598208396476e-05 -0.005972768467450103 -0.0 -0.0 -0.0 -0.00041017325522567014" free_energy=-336.18467722 energy=-336.17936922 pbc="T T T"
C        0.00000000       0.00000000      13.73977000      -0.25170600      -0.14707500       0.00137100
C       -1.22999000       2.13040000      13.65937000      -0.13576700       0.07838500       0.16357600
C       -2.46001000       4.26087000      13.65930000      -0.00002400      -0.15694700       0.16333300
C        2.45998000       0.00000000      13.73977000       0.25347800      -0.14634500       0.00128200
C        1.22999000       2.13040000      13.73977000       0.00151800       0.29152100       0.00137100
C       -0.00004000       4.26087000      13.64956000       0.03365600       0.01909200       0.10251500
C        4.92002000       0.00000000      13.64956000       0.00029300      -0.03869300       0.10251500
C        3.69004000       2.13040000      13.65930000       0.13590800       0.07849400       0.16333300
C        2.46001000       4.26087000      13.64953000      -0.03203900       0.01849800       0.10211600
C        0.00000000       1.42027000      13.73981000      -0.25364000       0.14643900       0.00100800
C       -1.23002000       3.55073000      13.64960000      -0.03360700      -0.01872900       0.10195400
C       -2.46001000       5.68113000      13.73977000      -0.00095400      -0.29157400       0.00091500
C        2.45998000       1.42027000      13.73977000       0.25203300       0.14661400       0.00091500
C        1.22995000       3.55073000      13.65932000      -0.00033300       0.15702000       0.16289400
C       -0.00004000       5.68113000      13.65932000       0.13569100      -0.07834100       0.16326000
C        4.92002000       1.42027000      13.64960000      -0.00058300       0.03846900       0.10195400
C        3.69000000       3.55073000      13.64955000       0.03222500      -0.01860500       0.10151200
C        2.46001000       5.68113000      13.65932000      -0.13614900      -0.07822100       0.16289400
C        0.00000000       0.00000000      10.26023000      -0.25170600      -0.14707500      -0.00137100
C       -1.22999000       2.13040000      10.34063000      -0.13576700       0.07838500      -0.16357600
C       -2.46001000       4.26087000      10.34070000      -0.00002400      -0.15694700      -0.16333300
C        2.45998000       0.00000000      10.26023000       0.25347800      -0.14634500      -0.00128200
C        1.22999000       2.13040000      10.26023000       0.00151800       0.29152100      -0.00137100
C       -0.00004000       4.26087000      10.35044000       0.03365600       0.01909200      -0.10251500
C        4.92002000       0.00000000      10.35044000       0.00029300      -0.03869300      -0.10251500
C        3.69004000       2.13040000      10.34070000       0.13590800       0.07849400      -0.16333300
C        2.46001000       4.26087000      10.35047000      -0.03203900       0.01849800      -0.10211600
C        0.00000000       1.42027000      10.26019000      -0.25364000       0.14643900      -0.00100800
C       -1.23002000       3.55073000      10.35040000      -0.03360700      -0.01872900      -0.10195400
C       -2.46001000       5.68113000      10.26023000      -0.00095400      -0.29157400      -0.00091500
C        2.45998000       1.42027000      10.26023000       0.25203300       0.14661400      -0.00091500
C        1.22995000       3.55073000      10.34068000      -0.00033300       0.15702000      -0.16289400
C       -0.00004000       5.68113000      10.34068000       0.13569100      -0.07834100      -0.16326000
C        4.92002000       1.42027000      10.35040000      -0.00058300       0.03846900      -0.10195400
C        3.69000000       3.55073000      10.35045000       0.03222500      -0.01860500      -0.10151200
C        2.46001000       5.68113000      10.34068000      -0.13614900      -0.07822100      -0.16289400
Li       1.22995000       0.71016000      12.00000000       0.00000200      -0.00000100       0.00000000
37
Lattice="7.380000114 0.0 0.0 -3.690000057 6.391267579 0.0 0.0 0.0 24.0" Properties=species:S:1:pos:R:3:forces:R:3 stress="-0.006050849746614903 5.74530915037554e-05 -0.0 5.74530915037554e-05 -0.00598450874611589 -0.0 -0.0 -0.0 0.00019833643549319228" free_energy=-336.21520766 energy=-336.2097852 pbc="T T T"
C        0.00000000       0.00000000      13.74316000      -0.23948200      -0.14001500       0.03026100
C       -1.22999000       2.13040000      13.67213000      -0.14595900       0.08427000       0.08872300
C       -2.46001000       4.26087000      13.67204000      -0.00003700      -0.16867900       0.08857200
C        2.45998000       0.00000000      13.74316000       0.24122400      -0.13927100       0.03027100
C        1.22999000       2.13040000      13.74316000       0.00151600       0.27740500       0.03026100
C       -0.00004000       4.26087000      13.65896000       0.03312500       0.01876800       0.12219700
C        4.92002000       0.00000000      13.65896000       0.00030900      -0.03807100       0.12219700
C        3.69004000       2.13040000      13.67204000       0.14606200       0.08437100       0.08857200
C        2.46001000       4.26087000      13.65890000      -0.03150500       0.01818900       0.12181600
C        0.00000000       1.42027000      13.74319000      -0.24137700       0.13935900       0.03065800
C       -1.23002000       3.55073000      13.65897000      -0.03307700      -0.01846600       0.12245300
C       -2.46001000       5.68113000      13.74313000      -0.00097600      -0.27739400       0.03048300
C        2.45998000       1.42027000      13.74313000       0.23974200       0.13954300       0.03048300
C        1.22995000       3.55073000      13.67204000      -0.00027700       0.16854000       0.08888400
C       -0.00004000       5.68113000      13.67206000       0.14573200      -0.08413900       0.08914800
C        4.92002000       1.42027000      13.65897000      -0.00054600       0.03787900       0.12245300
C        3.69000000       3.55073000      13.65888000       0.03163100      -0.01826200       0.12213900
C        2.46001000       5.68113000      13.67204000      -0.14609800      -0.08403000       0.08888400
C        0.00000000       0.00000000      10.25684000      -0.23948200      -0.14001500      -0.03026100
C       -1.22999000       2.13040000      10.32787000      -0.14595900       0.08427000      -0.08872300
C       -2.46001000       4.26087000      10.32796000      -0.00003700      -0.16867900      -0.08857200
C        2.45998000       0.00000000      10.25684000       0.24122400      -0.13927100      -0.03027100
C        1.22999000       2.13040000      10.25684000       0.00151600       0.27740500      -0.03026100
C       -0.00004000       4.26087000      10.34104000       0.03312500       0.01876800      -0.12219700
C        4.92002000       0.00000000      10.34104000       0.00030900      -0.03807100      -0.12219700
C        3.69004000       2.13040000      10.32796000       0.14606200       0.08437100      -0.08857200
C        2.46001000       4.26087000      10.34110000      -0.03150500       0.01818900      -0.12181600
C        0.00000000       1.42027000      10.25681000      -0.24137700       0.13935900      -0.03065800
C       -1.23002000       3.55073000      10.34103000      -0.03307700      -0.01846600      -0.12245300
C       -2.46001000       5.68113000      10.25687000      -0.00097600      -0.27739400      -0.03048300
C        2.45998000       1.42027000      10.25687000       0.23974200       0.13954300      -0.03048300
C        1.22995000       3.55073000      10.32796000      -0.00027700       0.16854000      -0.08888400
C       -0.00004000       5.68113000      10.32794000       0.14573200      -0.08413900      -0.08914800
C        4.92002000       1.42027000      10.34103000      -0.00054600       0.03787900      -0.12245300
C        3.69000000       3.55073000      10.34112000       0.03163100      -0.01826200      -0.12213900
C        2.46001000       5.68113000      10.32796000      -0.14609800      -0.08403000      -0.08888400
Li       1.22995000       0.71016000      12.00000000      -0.00001500       0.00000900      -0.00000000
37
Lattice="7.380000114 0.0 0.0 -3.690000057 6.391267579 0.0 0.0 0.0 24.0" Properties=species:S:1:pos:R:3:forces:R:3 stress="-0.006738152248538915 5.7109808501831814e-05 -0.0 5.7109808501831814e-05 -0.006672210704623959 -0.0 -0.0 -0.0 0.00080688357526681" free_energy=-336.33648543 energy=-336.33015437 pbc="T T T"
C        0.00000000       0.00000000      13.77147000      -0.20791200      -0.12182700      -0.01524400
C       -1.22999000       2.13040000      13.71956000      -0.16066700       0.09276100       0.06379000