37
Lattice="7.380000114 0.0 0.0 -3.690000057 6.391267579 0.0 0.0 0.0 24.0" Properties=species:S:1:pos:R:3:forces:R:3 stress="-0.006838203639826824 5.891360463921208e-05 -0.0 5.891360463921208e-05 -0.006770177431863822 -0.0 -0.0 -0.0 0.005017455563660663" free_energy=-336.50787094 energy=-336.50621175 pbc="T T T"
C        0.00000000       0.00000000      13.90000000      -0.14903900      -0.08761000       0.03125000
C       -1.22999000       2.13040000      13.90000000      -0.17038500       0.09837200      -0.03446900
C       -2.46001000       4.26087000      13.90000000      -0.00012300      -0.19681200      -0.03458200
C        2.45998000       0.00000000      13.90000000       0.15048600      -0.08688300       0.03105300
C        1.22999000       2.13040000      13.90000000       0.00135200       0.17287700       0.03125000
C       -0.00004000       4.26087000      13.90000000       0.02866600       0.01633700       0.00637300
C        4.92002000       0.00000000      13.90000000       0.00018500      -0.03299400       0.00637300
C        3.69004000       2.13040000      13.90000000       0.17038300       0.09851200      -0.03458200
C        2.46001000       4.26087000      13.90000000      -0.02727800       0.01574900       0.00651700
C        0.00000000       1.42027000      13.90000000      -0.15051200       0.08689800       0.03128700
C       -1.23002000       3.55073000      13.90000000      -0.02856300      -0.01604500       0.00641900
C       -2.46001000       5.68113000      13.90000000      -0.00110000      -0.17277300       0.03112400
C        2.45998000       1.42027000      13.90000000       0.14907600       0.08733900       0.03112400
C        1.22995000       3.55073000      13.90000000      -0.00014900       0.19682300      -0.03442200
C       -0.00004000       5.68113000      13.90000000       0.17042600      -0.09839500      -0.03453200
C        4.92002000       1.42027000      13.90000000      -0.00038600       0.03275800       0.00641900
C        3.69000000       3.55073000      13.90000000       0.02745600      -0.01585200       0.00641500
C        2.46001000       5.68113000      13.90000000      -0.17052900      -0.09828300      -0.03442200
C        0.00000000       0.00000000      10.10000000      -0.14903900      -0.08761000      -0.03125000
C       -1.22999000       2.13040000      10.10000000      -0.17038500       0.09837200       0.03446900
C       -2.46001000       4.26087000      10.10000000      -0.00012300      -0.19681200       0.03458200
C        2.45998000       0.00000000      10.10000000       0.15048600      -0.08688300      -0.03105300
C        1.22999000       2.13040000      10.10000000       0.00135200       0.17287700      -0.03125000
C       -0.00004000       4.26087000      10.10000000       0.02866600       0.01633700      -0.00637300
C        4.92002000       0.00000000      10.10000000       0.00018500      -0.03299400      -0.00637300
C        3.69004000       2.13040000      10.10000000       0.17038300       0.09851200       0.03458200
C        2.46001000       4.26087000      10.10000000      -0.02727800       0.01574900      -0.00651700
C        0.00000000       1.42027000      10.10000000      -0.15051200       0.08689800      -0.03128700
C       -1.23002000       3.55073000      10.10000000      -0.02856300      -0.01604500      -0.00641900
C       -2.46001000       5.68113000      10.10000000      -0.00110000      -0.17277300      -0.03112400
C        2.45998000       1.42027000      10.10000000       0.14907600       0.08733900      -0.03112400
C        1.22995000       3.55073000      10.10000000      -0.00014900       0.19682300       0.03442200
C       -0.00004000       5.68113000      10.10000000       0.17042600      -0.09839500       0.03453200
C        4.92002000       1.42027000      10.10000000      -0.00038600       0.03275800      -0.00641900
C        3.69000000       3.55073000      10.10000000       0.02745600      -0.01585200      -0.00641500
C        2.46001000       5.68113000      10.10000000      -0.17052900      -0.09828300       0.03442200
Li       1.22995000       0.71016000      12.00000000       0.00006900      -0.00004000      -0.00000000
37
Lattice="7.380000114 0.0 0.0 -3.690000057 6.391267579 0.0 0.0 0.0 24.0" Properties=species:S:1:pos:R:3:forces:R:3 stress="-0.006840762658568436 5.890112162096031e-05 -0.0 5.890112162096031e-05 -0.006772748933623685 -0.0 -0.0 -0.0 0.005037965162648315" free_energy=-336.50874868 energy=-336.50708938 pbc="T T T"
C        0.00000000       0.00000000      13.90151000      -0.14886600      -0.08750900       0.02359200
C       -1.22999000       2.13040000      13.89834000      -0.17033800       0.09834500      -0.00428200
C       -2.46001000       4.26087000      13.89833000      -0.00011700      -0.19676300      -0.00438500
C        2.45998000       0.00000000      13.90150000       0.15031800      -0.08678600       0.02344700
C        1.22999000       2.13040000      13.90151000       0.00135200       0.17267600       0.02359200
C       -0.00004000       4.26087000      13.90031000       0.02847900       0.01622900      -0.01696100
C        4.92002000       0.00000000      13.90031000       0.00018500      -0.03277800      -0.01696100
C        3.69004000       2.13040000      13.89833000       0.17034300       0.09848300      -0.00438500
C        2.46001000       4.26087000      13.90031000      -0.02708700       0.01563800      -0.01689500
C        0.00000000       1.42027000      13.90151000      -0.15032400       0.08679000       0.02363700
C       -1.23002000       3.55073000      13.90031000      -0.02837300      -0.01593800      -0.01699800
C       -2.46001000       5.68113000      13.90150000      -0.00111400      -0.17256700       0.02349300
C        2.45998000       1.42027000      13.90150000       0.14889000       0.08724800       0.02349300
C        1.22995000       3.55073000      13.89834000      -0.00015500       0.19678800      -0.00422800
C       -0.00004000       5.68113000      13.89833000       0.17039200      -0.09837600      -0.00437500
C        4.92002000       1.42027000      13.90031000      -0.00038400       0.03254100      -0.01699800
C        3.69000000       3.55073000      13.90031000       0.02726900      -0.01574400      -0.01699100
C        2.46001000       5.68113000      13.89834000      -0.17050100      -0.09826000      -0.00422800
C        0.00000000       0.00000000      10.09849000      -0.14886600      -0.08750900      -0.02359200
C       -1.22999000       2.13040000      10.10166000      -0.17033800       0.09834500       0.00428200
C       -2.46001000       4.26087000      10.10167000      -0.00011700      -0.19676300       0.00438500
C        2.45998000       0.00000000      10.09850000       0.15031800      -0.08678600      -0.02344700
C        1.22999000       2.13040000      10.09849000       0.00135200       0.17267600      -0.02359200
C       -0.00004000       4.26087000      10.09969000       0.02847900       0.01622900       0.01696100
C        4.92002000       0.00000000      10.09969000       0.00018500      -0.03277800       0.01696100
C        3.69004000       2.13040000      10.10167000       0.17034300       0.09848300       0.00438500
C        2.46001000       4.26087000      10.09969000      -0.02708700       0.01563800       0.01689500
C        0.00000000       1.42027000      10.09849000      -0.15032400       0.08679000      -0.02363700
C       -1.23002000       3.55073000      10.09969000      -0.02837300      -0.01593800       0.01699800
C       -2.46001000       5.68113000      10.09850000      -0.00111400      -0.17256700      -0.02349300
C        2.45998000       1.42027000      10.09850000       0.14889000       0.08724800      -0.02349300
C        1.22995000       3.55073000      10.10166000      -0.00015500       0.19678800       0.00422800
C       -0.00004000       5.68113000      10.10167000       0.17039200      -0.09837600       0.00437500
C        4.92002000       1.42027000      10.09969000      -0.00038400       0.03254100       0.01699800
C        3.69000000       3.55073000      10.09969000       0.02726900      -0.01574400       0.01699100
C        2.46001000       5.68113000      10.10166000      -0.17050100      -0.09826000       0.00422800
Li       1.22995000       0.71015000      12.00000000       0.00006000      -0.00003500      -0.00000000
37
Lattice="7.380000114 0.0 0.0 -3.690000057 6.391267579 0.0 0.0 0.0 24.0" Properties=species:S:1:pos:R:3:forces:R:3 stress="-0.006842110824539627 5.889488011183442e-05 -0.0 5.889488011183442e-05 -0.006774103341104003 -0.0 -0.0 -0.0 0.005049462022458193" free_energy=-336.50920729 energy=-336.50754793 pbc="T T T"
C        0.00000000       0.00000000      13.90258000      -0.14873300      -0.08743300       0.02259800
C       -1.22999000       2.13040000      13.89814000      -0.17029800       0.09832100      -0.00712600
C       -2.46001000       4.26087000      13.89813000      -0.00011600      -0.19671900      -0.00721600
C        2.45998000       0.00000000      13.90256000       0.15018800      -0.08671100       0.02250900
C        1.22999000       2.13040000      13.90258000       0.00135300       0.17252300       0.02259800
C       -0.00004000       4.26087000      13.89954000       0.02842200       0.01619700      -0.01361700
C        4.92002000       0.00000000      13.89954000       0.00018400      -0.03271300      -0.01361700
C        3.69004000       2.13040000      13.89813000       0.17030600       0.09846000      -0.00721600
C        2.46001000       4.26087000      13.89955000      -0.02702900       0.01560500      -0.01354500
C        0.00000000       1.42027000      13.90258000      -0.15018100       0.08670700       0.02260400
C       -1.23002000       3.55073000      13.89954000      -0.02831500      -0.01590100      -0.01364000
C       -2.46001000       5.68113000      13.90257000      -0.00112400      -0.17241000       0.02248800
C        2.45998000       1.42027000      13.90257000       0.14874900       0.08717800       0.02248800
C        1.22995000       3.55073000      13.89815000      -0.00015500       0.19674500      -0.00709000
C       -0.00004000       5.68113000      13.89814000       0.17035700      -0.09835600      -0.00721400
C        4.92002000       1.42027000      13.89954000      -0.00038700       0.03247200      -0.01364000
C        3.69000000       3.55073000      13.89954000       0.02721600      -0.01571300      -0.01363500
C        2.46001000       5.68113000      13.89815000      -0.17046400      -0.09823900      -0.00709000
C        0.00000000       0.00000000      10.09742000      -0.14873300      -0.08743300      -0.02259800
C       -1.22999000       2.13040000      10.10186000      -0.17029800       0.09832100       0.00712600
C       -2.46001000       4.26087000      10.10187000      -0.00011600      -0.19671900       0.00721600
C        2.45998000       0.00000000      10.09744000       0.15018800      -0.08671100      -0.02250900
C        1.22999000       2.13040000      10.09742000       0.00135300       0.17252300      -0.02259800
C       -0.00004000       4.26087000      10.10046000       0.02842200       0.01619700       0.01361700
C        4.92002000       0.00000000      10.10046000       0.00018400      -0.03271300       0.01361700
C        3.69004000       2.13040000      10.10187000       0.17030600       0.09846000       0.00721600
C        2.46001000       4.26087000      10.10045000      -0.02702900       0.01560500       0.01354500
C        0.00000000       1.42027000      10.09742000      -0.15018100       0.08670700      -0.02260400
C       -1.23002000       3.55073000      10.10046000      -0.02831500      -0.01590100       0.01364000
C       -2.46001000       5.68113000      10.09743000      -0.00112400      -0.17241000      -0.02248800
C        2.45998000       1.42027000      10.09743000       0.14874900       0.08717800      -0.02248800
C        1.22995000       3.55073000      10.10185000      -0.00015500       0.19674500       0.00709000
C       -0.00004000       5.68113000      10.10186000       0.17035700      -0.09835600       0.00721400
C        4.92002000       1.42027000      10.10046000      -0.00038700       0.03247200       0.01364000
C        3.69000000       3.55073000      10.10046000       0.02721600      -0.01571300       0.01363500
C        2.46001000       5.68113000      10.10185000      -0.17046400      -0.09823900       0.00709000
Li       1.22996000       0.71015000      12.00000000       0.00005300      -0.00003000      -0.00000000
37
Lattice="7.380000114 0.0 0.0 -3.690000057 6.391267579 0.0 0.0 0.0 24.0" Properties=species:S:1:pos:R:3:forces:R:3 stress="-0.006843577579184209 5.885118954795324e-05 -0.0 5.885118954795324e-05 -0.006775620027821592 -0.0 -0.0 -0.0 0.005090443771378742" free_energy=-336.51046609 energy=-336.50880654 pbc="T T T"
C        0.00000000       0.00000000      13.90608000      -0.14857100      -0.08734500       0.01737300
C       -1.22999000       2.13040000      13.89702000      -0.16994100       0.09811600      -0.00504100
C       -2.46001000       4.26087000      13.89700000      -0.00011200      -0.19631600      -0.00515200
C        2.45998000       0.00000000      13.90605000       0.15003700      -0.08662400       0.01726800
C        1.22999000       2.13040000      13.90608000       0.00135700       0.17233900       0.01737300
C       -0.00004000       4.26087000      13.89745000       0.02820200       0.01607200      -0.01220300
C        4.92002000       0.00000000      13.89745000       0.00018200      -0.03246000      -0.01220300
C        3.69004000       2.13040000      13.89700000       0.16995900       0.09825500      -0.00515200
C        2.46001000       4.26087000      13.89747000      -0.02680800       0.01547700      -0.01224200
C        0.00000000       1.42027000      13.90608000      -0.14999000       0.08659700       0.01743400
C       -1.23002000       3.55073000      13.89744000      -0.02809100      -0.01576300      -0.01220200
C       -2.46001000       5.68113000      13.90605000      -0.00115200      -0.17220900       0.01740400
C        2.45998000       1.42027000      13.90605000       0.14856200       0.08710200       0.01740400
C        1.22995000       3.55073000      13.89703000      -0.00015800       0.19634500      -0.00499500
C       -0.00004000       5.68113000      13.89700000       0.17001200      -0.09815700      -0.00505900
C        4.92002000       1.42027000      13.89744000      -0.00039500       0.03220900      -0.01220200
C        3.69000000       3.55073000      13.89744000       0.02700800      -0.01559300      -0.01226300
C        2.46001000       5.68113000      13.89703000      -0.17011800      -0.09803600      -0.00499500
C        0.00000000       0.00000000      10.09392000      -0.14857100      -0.08734500      -0.01737300
C       -1.22999000       2.13040000      10.10298000      -0.16994100       0.09811600       0.00504100
C       -2.46001000       4.26087000      10.10300000      -0.00011200      -0.19631600       0.00515200
C        2.45998000       0.00000000      10.09395000       0.15003700      -0.08662400      -0.01726800
C        1.22999000       2.13040000      10.09392000       0.00135700       0.17233900      -0.01737300
C       -0.00004000       4.26087000      10.10255000       0.02820200       0.01607200       0.01220300
C        4.92002000       0.00000000      10.10255000       0.00018200      -0.03246000       0.01220300
C        3.69004000       2.13040000      10.10300000       0.16995900       0.09825500       0.00515200
C        2.46001000       4.26087000      10.10253000      -0.02680800       0.01547700       0.01224200
C        0.00000000       1.42027000      10.09392000      -0.14999000       0.08659700      -0.01743400
C       -1.23002000       3.55073000      10.10256000      -0.02809100      -0.01576300       0.01220200
C       -2.46001000       5.68113000      10.09395000      -0.00115200      -0.17220900      -0.01740400
C        2.45998000       1.42027000      10.09395000       0.14856200       0.08710200      -0.01740400
C        1.22995000       3.55073000      10.10297000      -0.00015800       0.19634500       0.00499500
C       -0.00004000       5.68113000      10.10300000       0.17001200      -0.09815700       0.00505900
C        4.92002000       1.42027000      10.10256000      -0.00039500       0.03220900       0.01220200
C        3.69000000       3.55073000      10.10256000       0.02700800      -0.01559300       0.01226300
C        2.46001000       5.68113000      10.10297000      -0.17011800      -0.09803600       0.00499500
Li       1.22997000       0.71015000      12.00000000       0.00003400      -0.00001900      -0.00000000
37
Lattice="7.380000114 0.0 0.0 -3.690000057 6.391267579 0.0 0.0 0.0 24.0" Properties=species:S:1:pos:R:3:forces:R:3 stress="-0.006676380032720048 5.868266880155439e-05 -0.0 5.868266880155439e-05 -0.006608615968140334 -0.0 -0.0 -0.0 0.004988906900918873" free_energy=-336.51013675 energy=-336.5084766 pbc="T T T"
C        0.00000000       0.00000000      13.91845000      -0.15135600      -0.08897200      -0.02433000
C       -1.22999000       2.13040000      13.89314000      -0.16609800       0.09589600      -0.00322300
C       -2.46001000       4.26087000      13.89306000      -0.00010200      -0.19188600      -0.00322700
C        2.45998000       0.00000000      13.91836000       0.15287100      -0.08826000      -0.02427800
C        1.22999000       2.13040000      13.91845000       0.00137400       0.17556400      -0.02433000
C       -0.00004000       4.26087000      13.88968000       0.02736400       0.01561100       0.01130500
C        4.92002000       0.00000000      13.88968000       0.00016300      -0.03150300       0.01130500
C        3.69004000       2.13040000      13.89306000       0.16612700       0.09603100      -0.00322700
C        2.46001000       4.26087000      13.88972000      -0.02597500       0.01499700       0.01115700
C        0.00000000       1.42027000      13.91846000      -0.15271200       0.08816800      -0.02436400
C       -1.23002000       3.55073000      13.88967000      -0.02726000      -0.01524700       0.01106300
C       -2.46001000       5.68113000      13.91838000      -0.00120800      -0.17543200      -0.02440000
C        2.45998000       1.42027000      13.91838000       0.15132400       0.08876200      -0.02440000
C        1.22995000       3.55073000      13.89318000      -0.00017200       0.19195700      -0.00345100
C       -0.00004000       5.68113000      13.89308000       0.16620800      -0.09596000      -0.00331300
C        4.92002000       1.42027000      13.88967000      -0.00042600       0.03123200       0.01106300
C        3.69000000       3.55073000      13.88965000       0.02621900      -0.01513800       0.01090600
C        2.46001000       5.68113000      13.89318000      -0.16632600      -0.09583000      -0.00345100
C        0.00000000       0.00000000      10.08155000      -0.15135600      -0.08897200       0.02433000
C       -1.22999000       2.13040000      10.10686000      -0.16609800       0.09589600       0.00322300
C       -2.46001000       4.26087000      10.10694000      -0.00010200      -0.19188600       0.00322700
C        2.45998000       0.00000000      10.08164000       0.15287100      -0.08826000       0.02427800
C        1.22999000       2.13040000      10.08155000       0.00137400       0.17556400       0.02433000
C       -0.00004000       4.26087000      10.11032000       0.02736400       0.01561100      -0.01130500
C        4.92002000       0.00000000      10.11032000       0.00016300      -0.03150300      -0.01130500
C        3.69004000       2.13040000      10.10694000       0.16612700       0.09603100       0.00322700
C        2.46001000       4.26087000      10.11028000      -0.02597500       0.01499700      -0.01115700
C        0.00000000       1.42027000      10.08154000      -0.15271200       0.08816800       0.02436400
C       -1.23002000       3.55073000      10.11033000      -0.02726000      -0.01524700      -0.01106300
C       -2.46001000       5.68113000      10.08162000      -0.00120800      -0.17543200       0.02440000
C        2.45998000       1.42027000      10.08162000       0.15132400       0.08876200       0.02440000
C        1.22995000       3.55073000      10.10682000      -0.00017200       0.19195700       0.00345100
C       -0.00004000       5.68113000      10.10692000       0.16620800      -0.09596000       0.00331300
C        4.92002000       1.42027000      10.11033000      -0.00042600       0.03123200      -0.01106300
C        3.69000000       3.55073000      10.11035000       0.02621900      -0.01513800      -0.01090600
C        2.46001000       5.68113000      10.10682000      -0.16632600      -0.09583000       0.00345100
Li       1.22999000       0.71013000      12.00000000      -0.00002900       0.00001700       0.00000000
37
Lattice="7.380000114 0.0 0.0 -3.690000057 6.391267579 0.0 0.0 0.0 24.0" Properties=species:S:1:pos:R:3:forces:R:3 stress="-0.006840706484986303 5.878253294756853e-05 -0.0 5.878253294756853e-05 -0.006772830073242322 -0.0 -0.0 -0.0 0.005031636272394669" free_energy=-336.51130706 energy=-336.50964728 pbc="T T T"
C        0.00000000       0.00000000      13.91153000      -0.14906800      -0.08764200      -0.00665300
C       -1.22999000       2.13040000      13.89509000      -0.16866300       0.09737800      -0.00298900
C       -2.46001000       4.26087000      13.89504000      -0.00010600      -0.19484800      -0.00305500
C        2.45998000       0.00000000      13.91147000       0.15056000      -0.08692600      -0.00668200
C        1.22999000       2.13040000      13.91153000       0.00136600       0.17291800      -0.00665300
C       -0.00004000       4.26087000      13.89390000       0.02782400       0.01586400      -0.00960600
C        4.92002000       0.00000000      13.89390000       0.00017400      -0.03202800      -0.00960600
C        3.69004000       2.13040000      13.89504000       0.16869000       0.09751600      -0.00305500
C        2.46001000       4.26087000      13.89393000      -0.02643200       0.01526000      -0.00968000
C        0.00000000       1.42027000      13.91154000      -0.15044600       0.08686000      -0.00663700
C       -1.23002000       3.55073000      13.89389000      -0.02771700      -0.01552800      -0.00961000
C       -2.46001000       5.68113000      13.91148000      -0.00118700      -0.17277600      -0.00669800
C        2.45998000       1.42027000      13.91148000       0.14903500       0.08741600      -0.00669800
C        1.22995000       3.55073000      13.89511000      -0.00016400       0.19489200      -0.00294400
C       -0.00004000       5.68113000      13.89505000       0.16875400      -0.09743000      -0.00297200
C        4.92002000       1.42027000      13.89389000      -0.00041100       0.03176800      -0.00961000
C        3.69000000       3.55073000      13.89388000       0.02665400      -0.01538900      -0.00968900
C        2.46001000       5.68113000      13.89511000      -0.16886300      -0.09730400      -0.00294400
C        0.00000000       0.00000000      10.08847000      -0.14906800      -0.08764200       0.00665300
C       -1.22999000       2.13040000      10.10491000      -0.16866300       0.09737800       0.00298900
C       -2.46001000       4.26087000      10.10496000      -0.00010600      -0.19484800       0.00305500
C        2.45998000       0.00000000      10.08853000       0.15056000      -0.08692600       0.00668200
C        1.22999000       2.13040000      10.08847000       0.00136600       0.17291800       0.00665300
C       -0.00004000       4.26087000      10.10610000       0.02782400       0.01586400       0.00960600
C        4.92002000       0.00000000      10.10610000       0.00017400      -0.03202800       0.00960600
C        3.69004000       2.13040000      10.10496000       0.16869000       0.09751600       0.00305500
C        2.46001000       4.26087000      10.10607000      -0.02643200       0.01526000       0.00968000
C        0.00000000       1.42027000      10.08846000      -0.15044600       0.08686000       0.00663700
C       -1.23002000       3.55073000      10.10611000      -0.02771700      -0.01552800       0.00961000
C       -2.46001000       5.68113000      10.08852000      -0.00118700      -0.17277600       0.00669800
C        2.45998000       1.42027000      10.08852000       0.14903500       0.08741600       0.00669800
C        1.22995000       3.55073000      10.10489000      -0.00016400       0.19489200       0.00294400
C       -0.00004000       5.68113000      10.10495000       0.16875400      -0.09743000       0.00297200
C        4.92002000       1.42027000      10.10611000      -0.00041100       0.03176800       0.00961000
C        3.69000000       3.55073000      10.10612000       0.02665400      -0.01538900       0.00968900
C        2.46001000       5.68113000      10.10489000      -0.16886300      -0.09730400       0.00294400
Li       1.22998000       0.71014000      12.00000000       0.00000300      -0.00000200       0.00000000
