37
Lattice="7.380000114 0.0 0.0 -3.690000057 6.391267579 0.0 0.0 0.0 24.0" Properties=species:S:1:pos:R:3:forces:R:3 stress="-0.00684783428840806 5.2247672892768764e-05 -0.0 5.2247672892768764e-05 -0.0067875038611972735 -0.0 -0.0 -0.0 0.00488695184934757" free_energy=-336.53335467 energy=-336.53157034 pbc="T T T"
C        0.00000000       0.00000000      13.95000000      -0.14116700      -0.08310100       0.01683300
C       -1.22999000       2.13040000      13.95000000      -0.17014800       0.09823500      -0.02297900
C       -2.46001000       4.26087000      13.95000000      -0.00166300      -0.19381400      -0.02384800
C        2.45998000       0.00000000      13.95000000       0.14268600      -0.08238000       0.01620200
C        1.22999000       2.13040000      13.95000000       0.00138400       0.16380400       0.01683300
C       -0.00004000       4.26087000      13.95000000       0.02774600       0.01581300       0.01587600
C        4.92002000       0.00000000      13.95000000       0.00017800      -0.03193500       0.01587600
C        3.69004000       2.13040000      13.95000000       0.16701600       0.09834700      -0.02384800
C        2.46001000       4.26087000      13.95000000      -0.02633500       0.01520500       0.01671800
C        0.00000000       1.42027000      13.95000000      -0.14219200       0.08209400       0.01784900
C       -1.23002000       3.55073000      13.95000000      -0.02763900      -0.01485800       0.01484000
C       -2.46001000       5.68113000      13.95000000      -0.00153300      -0.16410100       0.01608700
C        2.45998000       1.42027000      13.95000000       0.14134900       0.08337800       0.01608700
C        1.22995000       3.55073000      13.95000000       0.00086900       0.19358700      -0.02311400
C       -0.00004000       5.68113000      13.95000000       0.17074000      -0.09857700      -0.02485300
C        4.92002000       1.42027000      13.95000000      -0.00095200       0.03136500       0.01484000
C        3.69000000       3.55073000      13.95000000       0.02711800      -0.01565600       0.01484100
C        2.46001000       5.68113000      13.95000000      -0.16721700      -0.09754600      -0.02311400
C        0.00000000       0.00000000      10.05000000      -0.14116700      -0.08310100      -0.01683300
C       -1.22999000       2.13040000      10.05000000      -0.17014800       0.09823500       0.02297900
C       -2.46001000       4.26087000      10.05000000      -0.00166300      -0.19381400       0.02384800
C        2.45998000       0.00000000      10.05000000       0.14268600      -0.08238000      -0.01620200
C        1.22999000       2.13040000      10.05000000       0.00138400       0.16380400      -0.01683300
C       -0.00004000       4.26087000      10.05000000       0.02774600       0.01581300      -0.01587600
C        4.92002000       0.00000000      10.05000000       0.00017800      -0.03193500      -0.01587600
C        3.69004000       2.13040000      10.05000000       0.16701600       0.09834700       0.02384800
C        2.46001000       4.26087000      10.05000000      -0.02633500       0.01520500      -0.01671800
C        0.00000000       1.42027000      10.05000000      -0.14219200       0.08209400      -0.01784900
C       -1.23002000       3.55073000      10.05000000      -0.02763900      -0.01485800      -0.01484000
C       -2.46001000       5.68113000      10.05000000      -0.00153300      -0.16410100      -0.01608700
C        2.45998000       1.42027000      10.05000000       0.14134900       0.08337800      -0.01608700
C        1.22995000       3.55073000      10.05000000       0.00086900       0.19358700       0.02311400
C       -0.00004000       5.68113000      10.05000000       0.17074000      -0.09857700       0.02485300
C        4.92002000       1.42027000      10.05000000      -0.00095200       0.03136500      -0.01484000
C        3.69000000       3.55073000      10.05000000       0.02711800      -0.01565600      -0.01484100
C        2.46001000       5.68113000      10.05000000      -0.16721700      -0.09754600       0.02311400
Li       1.22995000       0.71016000      12.00000000      -0.00048100       0.00027800      -0.00000000
37
Lattice="7.380000114 0.0 0.0 -3.690000057 6.391267579 0.0 0.0 0.0 24.0" Properties=species:S:1:pos:R:3:forces:R:3 stress="-0.006776531288153971 5.8863672566205015e-05 -0.0 5.8863672566205015e-05 -0.006708561253773103 -0.0 -0.0 -0.0 0.005027292182043055" free_energy=-336.53347867 energy=-336.5316929 pbc="T T T"
C        0.00000000       0.00000000      13.95081000      -0.13996500      -0.08238800       0.00036800
C       -1.22999000       2.13040000      13.94889000      -0.16798000       0.09698300       0.00523200
C       -2.46001000       4.26087000      13.94885000      -0.00009200      -0.19404700       0.00513600
C        2.45998000       0.00000000      13.95078000       0.14146500      -0.08167500       0.00011000
C        1.22999000       2.13040000      13.95081000       0.00136700       0.16240700       0.00036800
C       -0.00004000       4.26087000      13.95077000       0.02704400       0.01544100      -0.01423100
C        4.92002000       0.00000000      13.95077000       0.00015000      -0.03114200      -0.01423100
C        3.69004000       2.13040000      13.94885000       0.16800400       0.09710400       0.00513600
C        2.46001000       4.26087000      13.95081000      -0.02566900       0.01482000      -0.01446200
C        0.00000000       1.42027000      13.95086000      -0.14152100       0.08170700      -0.00019500
C       -1.23002000       3.55073000      13.95072000      -0.02697300      -0.01504800      -0.01315500
C       -2.46001000       5.68113000      13.95078000      -0.00100400      -0.16239500       0.00061400
C        2.45998000       1.42027000      13.95078000       0.14013600       0.08206700       0.00061400
C        1.22995000       3.55073000      13.94888000      -0.00020100       0.19414300       0.00567800
C       -0.00004000       5.68113000      13.94880000       0.16802900      -0.09701100       0.00640700
C        4.92002000       1.42027000      13.95072000      -0.00045400       0.03088400      -0.01315500
C        3.69000000       3.55073000      13.95072000       0.02589700      -0.01495100      -0.01307800
C        2.46001000       5.68113000      13.94888000      -0.16823300      -0.09689700       0.00567800
C        0.00000000       0.00000000      10.04919000      -0.13996500      -0.08238800      -0.00036800
C       -1.22999000       2.13040000      10.05111000      -0.16798000       0.09698300      -0.00523200
C       -2.46001000       4.26087000      10.05115000      -0.00009200      -0.19404700      -0.00513600
C        2.45998000       0.00000000      10.04922000       0.14146500      -0.08167500      -0.00011000
C        1.22999000       2.13040000      10.04919000       0.00136700       0.16240700      -0.00036800
C       -0.00004000       4.26087000      10.04923000       0.02704400       0.01544100       0.01423100
C        4.92002000       0.00000000      10.04923000       0.00015000      -0.03114200       0.01423100
C        3.69004000       2.13040000      10.05115000       0.16800400       0.09710400      -0.00513600
C        2.46001000       4.26087000      10.04919000      -0.02566900       0.01482000       0.01446200
C        0.00000000       1.42027000      10.04914000      -0.14152100       0.08170700       0.00019500
C       -1.23002000       3.55073000      10.04928000      -0.02697300      -0.01504800       0.01315500
C       -2.46001000       5.68113000      10.04922000      -0.00100400      -0.16239500      -0.00061400
C        2.45998000       1.42027000      10.04922000       0.14013600       0.08206700      -0.00061400
C        1.22995000       3.55073000      10.05112000      -0.00020100       0.19414300      -0.00567800
C       -0.00004000       5.68113000      10.05120000       0.16802900      -0.09701100      -0.00640700
C        4.92002000       1.42027000      10.04928000      -0.00045400       0.03088400       0.01315500
C        3.69000000       3.55073000      10.04928000       0.02589700      -0.01495100       0.01307800
C        2.46001000       5.68113000      10.05112000      -0.16823300      -0.09689700      -0.00567800
Li       1.22993000       0.71017000      12.00000000       0.00000400      -0.00000200       0.00000000
37
Lattice="7.380000114 0.0 0.0 -3.690000057 6.391267579 0.0 0.0 0.0 24.0" Properties=species:S:1:pos:R:3:forces:R:3 stress="-0.006776749740973377 5.887615558445677e-05 -0.0 5.887615558445677e-05 -0.006708760982065132 -0.0 -0.0 -0.0 0.005025775495325465" free_energy=-336.5335422 energy=-336.53175687 pbc="T T T"
C        0.00000000       0.00000000      13.95082000      -0.13997600      -0.08240100       0.00183600
C       -1.22999000       2.13040000      13.94907000      -0.16800600       0.09699900      -0.00255600
C       -2.46001000       4.26087000      13.94903000      -0.00009400      -0.19406500      -0.00238900
C        2.45998000       0.00000000      13.95079000       0.14147900      -0.08168300       0.00196800
C        1.22999000       2.13040000      13.95082000       0.00137300       0.16242300       0.00183600
C       -0.00004000       4.26087000      13.95027000       0.02708200       0.01546000      -0.00700500
C        4.92002000       0.00000000      13.95027000       0.00015200      -0.03118300      -0.00700500
C        3.69004000       2.13040000      13.94903000       0.16801800       0.09711400      -0.00238900
C        2.46001000       4.26087000      13.95031000      -0.02570300       0.01484000      -0.00721300
C        0.00000000       1.42027000      13.95085000      -0.14153500       0.08171500       0.00150700
C       -1.23002000       3.55073000      13.95026000      -0.02700700      -0.01507300      -0.00696000
C       -2.46001000       5.68113000      13.95080000      -0.00100800      -0.16240700       0.00185200
C        2.45998000       1.42027000      13.95080000       0.14014500       0.08207700       0.00185200
C        1.22995000       3.55073000      13.94908000      -0.00020100       0.19416300      -0.00268300
C       -0.00004000       5.68113000      13.94902000       0.16804800      -0.09702300      -0.00231200
C        4.92002000       1.42027000      13.95026000      -0.00045000       0.03092600      -0.00696000
C        3.69000000       3.55073000      13.95026000       0.02592700      -0.01496900      -0.00697900
C        2.46001000       5.68113000      13.94908000      -0.16825000      -0.09690800      -0.00268300
C        0.00000000       0.00000000      10.04918000      -0.13997600      -0.08240100      -0.00183600
C       -1.22999000       2.13040000      10.05093000      -0.16800600       0.09699900       0.00255600
C       -2.46001000       4.26087000      10.05097000      -0.00009400      -0.19406500       0.00238900
C        2.45998000       0.00000000      10.04921000       0.14147900      -0.08168300      -0.00196800
C        1.22999000       2.13040000      10.04918000       0.00137300       0.16242300      -0.00183600
C       -0.00004000       4.26087000      10.04973000       0.02708200       0.01546000       0.00700500
C        4.92002000       0.00000000      10.04973000       0.00015200      -0.03118300       0.00700500
C        3.69004000       2.13040000      10.05097000       0.16801800       0.09711400       0.00238900
C        2.46001000       4.26087000      10.04969000      -0.02570300       0.01484000       0.00721300
C        0.00000000       1.42027000      10.04915000      -0.14153500       0.08171500      -0.00150700
C       -1.23002000       3.55073000      10.04974000      -0.02700700      -0.01507300       0.00696000
C       -2.46001000       5.68113000      10.04920000      -0.00100800      -0.16240700      -0.00185200
C        2.45998000       1.42027000      10.04920000       0.14014500       0.08207700      -0.00185200
C        1.22995000       3.55073000      10.05092000      -0.00020100       0.19416300       0.00268300
C       -0.00004000       5.68113000      10.05098000       0.16804800      -0.09702300       0.00231200
C        4.92002000       1.42027000      10.04974000      -0.00045000       0.03092600       0.00696000
C        3.69000000       3.55073000      10.04974000       0.02592700      -0.01496900       0.00697900
C        2.46001000       5.68113000      10.05092000      -0.16825000      -0.09690800       0.00268300
Li       1.22993000       0.71017000      12.00000000       0.00001300      -0.00000800      -0.00000000
