37
Lattice="7.380000114 0.0 0.0 -3.690000057 6.391267579 0.0 0.0 0.0 24.0" Properties=species:S:1:pos:R:3:forces:R:3 stress="-0.006667542055797797 5.105554464972505e-05 -0.0 5.105554464972505e-05 -0.006608584760594704 -0.0 -0.0 -0.0 0.00034584202066519136" free_energy=-336.37980364 energy=-336.37465637 pbc="T T T"
C        0.00000000       0.00000000      13.75000000      -0.19144700      -0.11229000       0.18290300
C       -1.22999000       2.13040000      13.75000000      -0.17909000       0.10339800       0.00980100
C       -2.46001000       4.26087000      13.75000000      -0.00150800      -0.20423500       0.00885500
C        2.45998000       0.00000000      13.75000000       0.19325700      -0.11157700       0.18166800
C        1.22999000       2.13040000      13.75000000       0.00152200       0.22194300       0.18290300
C       -0.00004000       4.26087000      13.75000000       0.03466000       0.01977900       0.05301800
C        4.92002000       0.00000000      13.75000000       0.00020100      -0.03990600       0.05301800
C        3.69004000       2.13040000      13.75000000       0.17611900       0.10342300       0.00885500
C        2.46001000       4.26087000      13.75000000      -0.03308700       0.01910300       0.05397400
C        0.00000000       1.42027000      13.75000000      -0.19281100       0.11131900       0.18385100
C       -1.23002000       3.55073000      13.75000000      -0.03468900      -0.01874600       0.05204800
C       -2.46001000       5.68113000      13.75000000      -0.00145000      -0.22231700       0.18181800
C        2.45998000       1.42027000      13.75000000       0.19180700       0.11241400       0.18181800
C        1.22995000       3.55073000      13.75000000       0.00080700       0.20412100       0.00987300
C       -0.00004000       5.68113000      13.75000000       0.17949300      -0.10363000       0.00783500
C        4.92002000       1.42027000      13.75000000      -0.00111000       0.03941400       0.05204800
C        3.69000000       3.55073000      13.75000000       0.03390800      -0.01957700       0.05209900
C        2.46001000       5.68113000      13.75000000      -0.17637000      -0.10276000       0.00987300
C        0.00000000       0.00000000      10.25000000      -0.19144700      -0.11229000      -0.18290300
C       -1.22999000       2.13040000      10.25000000      -0.17909000       0.10339800      -0.00980100
C       -2.46001000       4.26087000      10.25000000      -0.00150800      -0.20423500      -0.00885500
C        2.45998000       0.00000000      10.25000000       0.19325700      -0.11157700      -0.18166800
C        1.22999000       2.13040000      10.25000000       0.00152200       0.22194300      -0.18290300
C       -0.00004000       4.26087000      10.25000000       0.03466000       0.01977900      -0.05301800
C        4.92002000       0.00000000      10.25000000       0.00020100      -0.03990600      -0.05301800
C        3.69004000       2.13040000      10.25000000       0.17611900       0.10342300      -0.00885500
C        2.46001000       4.26087000      10.25000000      -0.03308700       0.01910300      -0.05397400
C        0.00000000       1.42027000      10.25000000      -0.19281100       0.11131900      -0.18385100
C       -1.23002000       3.55073000      10.25000000      -0.03468900      -0.01874600      -0.05204800
C       -2.46001000       5.68113000      10.25000000      -0.00145000      -0.22231700      -0.18181800
C        2.45998000       1.42027000      10.25000000       0.19180700       0.11241400      -0.18181800
C        1.22995000       3.55073000      10.25000000       0.00080700       0.20412100      -0.00987300
C       -0.00004000       5.68113000      10.25000000       0.17949300      -0.10363000      -0.00783500
C        4.92002000       1.42027000      10.25000000      -0.00111000       0.03941400      -0.05204800
C        3.69000000       3.55073000      10.25000000       0.03390800      -0.01957700      -0.05209900
C        2.46001000       5.68113000      10.25000000      -0.17637000      -0.10276000      -0.00987300
Li       1.22995000       0.71016000      12.00000000      -0.00042400       0.00024500      -0.00000000
37
Lattice="7.380000114 0.0 0.0 -3.690000057 6.391267579 0.0 0.0 0.0 24.0" Properties=species:S:1:pos:R:3:forces:R:3 stress="-0.006793395845812108 5.5287287837073906e-05 -0.0 5.5287287837073906e-05 -0.006729557690472574 -0.0 -0.0 -0.0 0.0007056026066811024" free_energy=-336.39824518 energy=-336.3935008 pbc="T T T"
C        0.00000000       0.00000000      13.75882000      -0.18882200      -0.10967200       0.14499900
C       -1.22999000       2.13040000      13.75047000      -0.17757300       0.10252200       0.05386600
C       -2.46001000       4.26087000      13.75043000      -0.00087500      -0.20358800       0.05363200
C        2.45998000       0.00000000      13.75876000       0.20102000      -0.11605900       0.14801300
C        1.22999000       2.13040000      13.75882000       0.00056800       0.21836000       0.14499900
C       -0.00004000       4.26087000      13.75256000       0.03256800       0.01968600       0.01812100
C        4.92002000       0.00000000      13.75256000      -0.00076500      -0.03804700       0.01812100
C        3.69004000       2.13040000      13.75043000       0.17587500       0.10255200       0.05363200
C        2.46001000       4.26087000      13.75260000      -0.03290600       0.01899800       0.01797900
C        0.00000000       1.42027000      13.75887000      -0.19062200       0.11005600       0.14444300
C       -1.23002000       3.55073000      13.75251000      -0.03447000      -0.01814500       0.01911100
C       -2.46001000       5.68113000      13.75877000      -0.00191400      -0.22305700       0.14615700
C        2.45998000       1.42027000      13.75877000       0.19221600       0.11318600       0.14615700
C        1.22995000       3.55073000      13.75048000      -0.00118000       0.20487200       0.05438500
C       -0.00004000       5.68113000      13.75038000       0.17558000      -0.10137100       0.05478700
C        4.92002000       1.42027000      13.75251000      -0.00152100       0.03892400       0.01911100
C        3.69000000       3.55073000      13.75251000       0.03131400      -0.01807900       0.01921500
C        2.46001000       5.68113000      13.75048000      -0.17801500      -0.10141400       0.05438500
C        0.00000000       0.00000000      10.24118000      -0.18882200      -0.10967200      -0.14499900
C       -1.22999000       2.13040000      10.24953000      -0.17757300       0.10252200      -0.05386600
C       -2.46001000       4.26087000      10.24957000      -0.00087500      -0.20358800      -0.05363200
C        2.45998000       0.00000000      10.24124000       0.20102000      -0.11605900      -0.14801300
C        1.22999000       2.13040000      10.24118000       0.00056800       0.21836000      -0.14499900
C       -0.00004000       4.26087000      10.24744000       0.03256800       0.01968600      -0.01812100
C        4.92002000       0.00000000      10.24744000      -0.00076500      -0.03804700      -0.01812100
C        3.69004000       2.13040000      10.24957000       0.17587500       0.10255200      -0.05363200
C        2.46001000       4.26087000      10.24740000      -0.03290600       0.01899800      -0.01797900
C        0.00000000       1.42027000      10.24113000      -0.19062200       0.11005600      -0.14444300
C       -1.23002000       3.55073000      10.24749000      -0.03447000      -0.01814500      -0.01911100
C       -2.46001000       5.68113000      10.24123000      -0.00191400      -0.22305700      -0.14615700
C        2.45998000       1.42027000      10.24123000       0.19221600       0.11318600      -0.14615700
C        1.22995000       3.55073000      10.24952000      -0.00118000       0.20487200      -0.05438500
C       -0.00004000       5.68113000      10.24962000       0.17558000      -0.10137100      -0.05478700
C        4.92002000       1.42027000      10.24749000      -0.00152100       0.03892400      -0.01911100
C        3.69000000       3.55073000      10.24749000       0.03131400      -0.01807900      -0.01921500
C        2.46001000       5.68113000      10.24952000      -0.17801500      -0.10141400      -0.05438500
Li       1.22993000       0.71017000      12.00000000      -0.00095500       0.00055100       0.00000000
37
Lattice="7.380000114 0.0 0.0 -3.690000057 6.391267579 0.0 0.0 0.0 24.0" Properties=species:S:1:pos:R:3:forces:R:3 stress="-0.006952429498339614 5.769026885053895e-05 -0.0 5.769026885053895e-05 -0.006885807629929935 -0.0 -0.0 -0.0 0.0008398200189240959" free_energy=-336.42182529 energy=-336.41772026 pbc="T T T"
C        0.00000000       0.00000000      13.77130000      -0.18536000      -0.10871300       0.06897100
C       -1.22999000       2.13040000      13.75511000      -0.17524900       0.10118000       0.05283100
C       -2.46001000       4.26087000      13.75504000       0.00004000      -0.20244400       0.05370300
C        2.45998000       0.00000000      13.77150000       0.18695500      -0.10793800       0.06609800
C        1.22999000       2.13040000      13.77130000       0.00146800       0.21488300       0.06897100
C       -0.00004000       4.26087000      13.75412000       0.03277800       0.01870100       0.04774200
C        4.92002000       0.00000000      13.75412000       0.00019400      -0.03773700       0.04774200
C        3.69004000       2.13040000      13.75504000       0.17534200       0.10118700       0.05370300
C        2.46001000       4.26087000      13.75415000      -0.03125900       0.01804700       0.04792300
C        0.00000000       1.42027000      13.77129000      -0.18706600       0.10800200       0.06870800
C       -1.23002000       3.55073000      13.75415000      -0.03276400      -0.01830500       0.04657500
C       -2.46001000       5.68113000      13.77134000      -0.00105600      -0.21483000       0.06844600
C        2.45998000       1.42027000      13.77134000       0.18552000       0.10833000       0.06844600
C        1.22995000       3.55073000      13.75515000      -0.00024100       0.20266900       0.05173900
C       -0.00004000       5.68113000      13.75509000       0.17506800      -0.10107500       0.05346900
C        4.92002000       1.42027000      13.75415000      -0.00052900       0.03752700       0.04657500
C        3.69000000       3.55073000      13.75417000       0.03156100      -0.01822200       0.04592400
C        2.46001000       5.68113000      13.75515000      -0.17563700      -0.10112600       0.05173900
C        0.00000000       0.00000000      10.22870000      -0.18536000      -0.10871300      -0.06897100
C       -1.22999000       2.13040000      10.24489000      -0.17524900       0.10118000      -0.05283100
C       -2.46001000       4.26087000      10.24496000       0.00004000      -0.20244400      -0.05370300
C        2.45998000       0.00000000      10.22850000       0.18695500      -0.10793800      -0.06609800
C        1.22999000       2.13040000      10.22870000       0.00146800       0.21488300      -0.06897100
C       -0.00004000       4.26087000      10.24588000       0.03277800       0.01870100      -0.04774200
C        4.92002000       0.00000000      10.24588000       0.00019400      -0.03773700      -0.04774200
C        3.69004000       2.13040000      10.24496000       0.17534200       0.10118700      -0.05370300
C        2.46001000       4.26087000      10.24585000      -0.03125900       0.01804700      -0.04792300
C        0.00000000       1.42027000      10.22871000      -0.18706600       0.10800200      -0.06870800
C       -1.23002000       3.55073000      10.24585000      -0.03276400      -0.01830500      -0.04657500
C       -2.46001000       5.68113000      10.22866000      -0.00105600      -0.21483000      -0.06844600
C        2.45998000       1.42027000      10.22866000       0.18552000       0.10833000      -0.06844600
C        1.22995000       3.55073000      10.24485000      -0.00024100       0.20266900      -0.05173900
C       -0.00004000       5.68113000      10.24491000       0.17506800      -0.10107500      -0.05346900
C        4.92002000       1.42027000      10.24585000      -0.00052900       0.03752700      -0.04657500
C        3.69000000       3.55073000      10.24583000       0.03156100      -0.01822200      -0.04592400
C        2.46001000       5.68113000      10.24485000      -0.17563700      -0.10112600      -0.05173900
Li       1.22985000       0.71021000      12.00000000       0.00046500      -0.00026900      -0.00000000
37
Lattice="7.380000114 0.0 0.0 -3.690000057 6.391267579 0.0 0.0 0.0 24.0" Properties=species:S:1:pos:R:3:forces:R:3 stress="-0.007227910986628722 5.80834839254696e-05 -0.0 5.80834839254696e-05 -0.007160839729561982 -0.0 -0.0 -0.0 0.0010312907943788167" free_energy=-336.43560353 energy=-336.4320956 pbc="T T T"
C        0.00000000       0.00000000      13.78057000      -0.18381500      -0.10780500       0.06955800
C       -1.22999000       2.13040000      13.76058000      -0.17411200       0.10052400       0.04567700
C       -2.46001000       4.26087000      13.76057000       0.00000600      -0.20111500       0.04598900
C        2.45998000       0.00000000      13.78064000       0.18535900      -0.10701700       0.06949000
C        1.22999000       2.13040000      13.78057000       0.00145400       0.21309100       0.06955800
C       -0.00004000       4.26087000      13.75819000       0.03220600       0.01839800       0.06533700
C        4.92002000       0.00000000      13.75819000       0.00016900      -0.03709000       0.06533700
C        3.69004000       2.13040000      13.76057000       0.17417400       0.10055200       0.04598900
C        2.46001000       4.26087000      13.75823000      -0.03071600       0.01773400       0.06420900
C        0.00000000       1.42027000      13.78053000      -0.18542400       0.10705500       0.07030200
C       -1.23002000       3.55073000      13.75817000      -0.03215800      -0.01798700       0.06545500
C       -2.46001000       5.68113000      13.78061000      -0.00111600      -0.21296700       0.06942100
C        2.45998000       1.42027000      13.78061000       0.18387700       0.10745000       0.06942100
C        1.22995000       3.55073000      13.76056000      -0.00022500       0.20127800       0.04674500
C       -0.00004000       5.68113000      13.76064000       0.17404400      -0.10048400       0.04592600
C        4.92002000       1.42027000      13.75817000      -0.00050200       0.03684300       0.06545500
C        3.69000000       3.55073000      13.75813000       0.03101300      -0.01790500       0.06592100
C        2.46001000       5.68113000      13.76056000      -0.17442400      -0.10044400       0.04674500
C        0.00000000       0.00000000      10.21943000      -0.18381500      -0.10780500      -0.06955800
C       -1.22999000       2.13040000      10.23942000      -0.17411200       0.10052400      -0.04567700
C       -2.46001000       4.26087000      10.23943000       0.00000600      -0.20111500      -0.04598900
C        2.45998000       0.00000000      10.21936000       0.18535900      -0.10701700      -0.06949000
C        1.22999000       2.13040000      10.21943000       0.00145400       0.21309100      -0.06955800
C       -0.00004000       4.26087000      10.24181000       0.03220600       0.01839800      -0.06533700
C        4.92002000       0.00000000      10.24181000       0.00016900      -0.03709000      -0.06533700
C        3.69004000       2.13040000      10.23943000       0.17417400       0.10055200      -0.04598900
C        2.46001000       4.26087000      10.24177000      -0.03071600       0.01773400      -0.06420900
C        0.00000000       1.42027000      10.21947000      -0.18542400       0.10705500      -0.07030200
C       -1.23002000       3.55073000      10.24183000      -0.03215800      -0.01798700      -0.06545500
C       -2.46001000       5.68113000      10.21939000      -0.00111600      -0.21296700      -0.06942100
C        2.45998000       1.42027000      10.21939000       0.18387700       0.10745000      -0.06942100
C        1.22995000       3.55073000      10.23944000      -0.00022500       0.20127800      -0.04674500
C       -0.00004000       5.68113000      10.23936000       0.17404400      -0.10048400      -0.04592600
C        4.92002000       1.42027000      10.24183000      -0.00050200       0.03684300      -0.06545500
C        3.69000000       3.55073000      10.24187000       0.03101300      -0.01790500      -0.06592100
C        2.46001000       5.68113000      10.23944000      -0.17442400      -0.10044400      -0.04674500
Li       1.22986000       0.71021000      12.00000000       0.00037900      -0.00021900       0.00000000
37
Lattice="7.380000114 0.0 0.0 -3.690000057 6.391267579 0.0 0.0 0.0 24.0" Properties=species:S:1:pos:R:3:forces:R:3 stress="-0.006934990721841895 5.7409400939874216e-05 -0.0 5.7409400939874216e-05 -0.006868699653415889 -0.0 -0.0 -0.0 0.0005747244018204563" free_energy=-336.39537446 energy=-336.39043366 pbc="T T T"
C        0.00000000       0.00000000      13.75917000      -0.18789400      -0.11022900       0.14356800
C       -1.22999000       2.13040000      13.74894000      -0.17674800       0.10204600       0.02226100
C       -2.46001000       4.26087000      13.74887000       0.00004000      -0.20415400       0.02317600
C        2.45998000       0.00000000      13.75920000       0.18958200      -0.10945500       0.14377700
C        1.22999000       2.13040000      13.75917000       0.00151400       0.21783600       0.14356800
C       -0.00004000       4.26087000      13.74702000       0.03348500       0.01914100       0.06161300
C        4.92002000       0.00000000      13.74702000       0.00016600      -0.03857000       0.06161300
C        3.69004000       2.13040000      13.74887000       0.17682300       0.10204300       0.02317600
C        2.46001000       4.26087000      13.74719000      -0.03196800       0.01845700       0.05897200
C        0.00000000       1.42027000      13.75910000      -0.18975500       0.10955500       0.14553700
C       -1.23002000       3.55073000      13.74698000      -0.03356900      -0.01905600       0.06620500
C       -2.46001000       5.68113000      13.75918000      -0.00099200      -0.21780200       0.14415200
C        2.45998000       1.42027000      13.75918000       0.18812600       0.10976000       0.14415200
C        1.22995000       3.55073000      13.74882000      -0.00026600       0.20439500       0.02575300
C       -0.00004000       5.68113000      13.74888000       0.17650200      -0.10190300       0.02413100
C        4.92002000       1.42027000      13.74698000      -0.00028200       0.03860000       0.06620500
C        3.69000000       3.55073000      13.74692000       0.03222300      -0.01860400       0.07719100
C        2.46001000       5.68113000      13.74882000      -0.17714400      -0.10196800       0.02575300
C        0.00000000       0.00000000      10.24083000      -0.18789400      -0.11022900      -0.14356800
C       -1.22999000       2.13040000      10.25106000      -0.17674800       0.10204600      -0.02226100
C       -2.46001000       4.26087000      10.25113000       0.00004000      -0.20415400      -0.02317600
C        2.45998000       0.00000000      10.24080000       0.18958200      -0.10945500      -0.14377700
C        1.22999000       2.13040000      10.24083000       0.00151400       0.21783600      -0.14356800
C       -0.00004000       4.26087000      10.25298000       0.03348500       0.01914100      -0.06161300
C        4.92002000       0.00000000      10.25298000       0.00016600      -0.03857000      -0.06161300
C        3.69004000       2.13040000      10.25113000       0.17682300       0.10204300      -0.02317600
C        2.46001000       4.26087000      10.25281000      -0.03196800       0.01845700      -0.05897200
C        0.00000000       1.42027000      10.24090000      -0.18975500       0.10955500      -0.14553700
C       -1.23002000       3.55073000      10.25302000      -0.03356900      -0.01905600      -0.06620500
C       -2.46001000       5.68113000      10.24082000      -0.00099200      -0.21780200      -0.14415200
C        2.45998000       1.42027000      10.24082000       0.18812600       0.10976000      -0.14415200
C        1.22995000       3.55073000      10.25118000      -0.00026600       0.20439500      -0.02575300
C       -0.00004000       5.68113000      10.25112000       0.17650200      -0.10190300      -0.02413100
C        4.92002000       1.42027000      10.25302000      -0.00028200       0.03860000      -0.06620500
C        3.69000000       3.55073000      10.25308000       0.03222300      -0.01860400      -0.07719100
C        2.46001000       5.68113000      10.25118000      -0.17714400      -0.10196800      -0.02575300
Li       1.22985000       0.71021000      12.00000000       0.00031600      -0.00018300       0.00000000
37
Lattice="7.380000114 0.0 0.0 -3.690000057 6.391267579 0.0 0.0 0.0 24.0" Properties=species:S:1:pos:R:3:forces:R:3 stress="-0.007245037687670147 5.803979336158842e-05 -0.0 5.803979336158842e-05 -0.007178016362676413 -0.0 -0.0 -0.0 0.000906747721280942" free_energy=-336.42907405 energy=-336.42529803 pbc="T T T"
C        0.00000000       0.00000000      13.77451000      -0.18417800      -0.10801800       0.07452400
C       -1.22999000       2.13040000      13.75934000      -0.17529700       0.10120800       0.03166900
C       -2.46001000       4.26087000      13.75930000       0.00000500      -0.20250400       0.03052200
C        2.45998000       0.00000000      13.77458000       0.18574700      -0.10724100       0.07436300
C        1.22999000       2.13040000      13.77451000       0.00145700       0.21351200       0.07452400
C       -0.00004000       4.26087000      13.75750000       0.03257100       0.01860300       0.06154000
C        4.92002000       0.00000000      13.75750000       0.00017500      -0.03750900       0.06154000
C        3.69004000       2.13040000      13.75930000       0.17537600       0.10124800       0.03052200
C        2.46001000       4.26087000      13.75757000      -0.03106600       0.01793600       0.05836400
C        0.00000000       1.42027000      13.77446000      -0.18584800       0.10730000       0.07590700
C       -1.23002000       3.55073000      13.75736000      -0.03254000      -0.01818700       0.06417600
C       -2.46001000       5.68113000      13.77451000      -0.00107700      -0.21345700       0.07537200
C        2.45998000       1.42027000      13.77451000       0.18432100       0.10766100       0.07537200
C        1.22995000       3.55073000      13.75928000      -0.00023300       0.20264900       0.03518500
C       -0.00004000       5.68113000      13.75932000       0.17518900      -0.10114500       0.03441800
C        4.92002000       1.42027000      13.75736000      -0.00052000       0.03727400       0.06417600
C        3.69000000       3.55073000      13.75704000       0.03136400      -0.01810800       0.06805500
C        2.46001000       5.68113000      13.75928000      -0.17561500      -0.10112300       0.03518500
C        0.00000000       0.00000000      10.22549000      -0.18417800      -0.10801800      -0.07452400
C       -1.22999000       2.13040000      10.24066000      -0.17529700       0.10120800      -0.03166900
C       -2.46001000       4.26087000      10.24070000       0.00000500      -0.20250400      -0.03052200
C        2.45998000       0.00000000      10.22542000       0.18574700      -0.10724100      -0.07436300
C        1.22999000       2.13040000      10.22549000       0.00145700       0.21351200      -0.07452400
C       -0.00004000       4.26087000      10.24250000       0.03257100       0.01860300      -0.06154000
C        4.92002000       0.00000000      10.24250000       0.00017500      -0.03750900      -0.06154000
C        3.69004000       2.13040000      10.24070000       0.17537600       0.10124800      -0.03052200
C        2.46001000       4.26087000      10.24243000      -0.03106600       0.01793600      -0.05836400
C        0.00000000       1.42027000      10.22554000      -0.18584800       0.10730000      -0.07590700
C       -1.23002000       3.55073000      10.24264000      -0.03254000      -0.01818700      -0.06417600
C       -2.46001000       5.68113000      10.22549000      -0.00107700      -0.21345700      -0.07537200
C        2.45998000       1.42027000      10.22549000       0.18432100       0.10766100      -0.07537200
C        1.22995000       3.55073000      10.24072000      -0.00023300       0.20264900      -0.03518500
C       -0.00004000       5.68113000      10.24068000       0.17518900      -0.10114500      -0.03441800
C        4.92002000       1.42027000      10.24264000      -0.00052000       0.03727400      -0.06417600
C        3.69000000       3.55073000      10.24296000       0.03136400      -0.01810800      -0.06805500
C        2.46001000       5.68113000      10.24072000      -0.17561500      -0.10112300      -0.03518500
Li       1.22987000       0.71020000      12.00000000       0.00033800      -0.00019500      -0.00000000
37
Lattice="7.380000114 0.0 0.0 -3.690000057 6.391267579 0.0 0.0 0.0 24.0" Properties=species:S:1:pos:R:3:forces:R:3 stress="-0.007825716489196695 5.8589046164666136e-05 -0.0 5.8589046164666136e-05 -0.007758064771781247 -0.0 -0.0 -0.0 0.001065544196461664" free_energy=-336.45883313 energy=-336.45621913 pbc="T T T"
C        0.00000000       0.00000000      13.79053000      -0.18031100      -0.10572600       0.08224400
C       -1.22999000       2.13040000      13.77211000      -0.17362400       0.10024200       0.00531100
C       -2.46001000       4.26087000      13.77195000      -0.00009700      -0.20054600       0.00314900
C        2.45998000       0.00000000      13.79062000       0.18179200      -0.10495700       0.08234600
C        1.22999000       2.13040000      13.79053000       0.00140600       0.20901700       0.08224400
C       -0.00004000       4.26087000      13.77131000       0.03166600       0.01804400      -0.00867900
C        4.92002000       0.00000000      13.77131000       0.00020700      -0.03644600      -0.00867900
C        3.69004000       2.13040000      13.77195000       0.17362900       0.10035700       0.00314900
C        2.46001000       4.26087000      13.77110000      -0.03018400       0.01742700      -0.01129600
C        0.00000000       1.42027000      13.79055000      -0.18182200       0.10497500       0.08131900
C       -1.23002000       3.55073000      13.77110000      -0.03156400      -0.01770400      -0.00858600
C       -2.46001000       5.68113000      13.79059000      -0.00117900      -0.20897100       0.08023400
C        2.45998000       1.42027000      13.79059000       0.18038400       0.10550700       0.08023400
C        1.22995000       3.55073000      13.77228000      -0.00019300       0.20074500       0.00513300
C       -0.00004000       5.68113000      13.77231000       0.17370700      -0.10029000       0.00580000
C        4.92002000       1.42027000      13.77110000      -0.00045000       0.03618700      -0.00858600
C        3.69000000       3.55073000      13.77035000       0.03043800      -0.01757300       0.00604300
C        2.46001000       5.68113000      13.77228000      -0.17394700      -0.10020600       0.00513300
C        0.00000000       0.00000000      10.20947000      -0.18031100      -0.10572600      -0.08224400
C       -1.22999000       2.13040000      10.22789000      -0.17362400       0.10024200      -0.00531100
C       -2.46001000       4.26087000      10.22805000      -0.00009700      -0.20054600      -0.00314900
C        2.45998000       0.00000000      10.20938000       0.18179200      -0.10495700      -0.08234600
C        1.22999000       2.13040000      10.20947000       0.00140600       0.20901700      -0.08224400
C       -0.00004000       4.26087000      10.22869000       0.03166600       0.01804400       0.00867900
C        4.92002000       0.00000000      10.22869000       0.00020700      -0.03644600       0.00867900
C        3.69004000       2.13040000      10.22805000       0.17362900       0.10035700      -0.00314900
C        2.46001000       4.26087000      10.22890000      -0.03018400       0.01742700       0.01129600
C        0.00000000       1.42027000      10.20945000      -0.18182200       0.10497500      -0.08131900
C       -1.23002000       3.55073000      10.22890000      -0.03156400      -0.01770400       0.00858600
C       -2.46001000       5.68113000      10.20941000      -0.00117900      -0.20897100      -0.08023400
C        2.45998000       1.42027000      10.20941000       0.18038400       0.10550700      -0.08023400
C        1.22995000       3.55073000      10.22772000      -0.00019300       0.20074500      -0.00513300
C       -0.00004000       5.68113000      10.22769000       0.17370700      -0.10029000      -0.00580000
C        4.92002000       1.42027000      10.22890000      -0.00045000       0.03618700       0.00858600
C        3.69000000       3.55073000      10.22965000       0.03043800      -0.01757300      -0.00604300
C        2.46001000       5.68113000      10.22772000      -0.17394700      -0.10020600      -0.00513300
Li       1.22991000       0.71018000      12.00000000       0.00028800      -0.00016600      -0.00000000
37
Lattice="7.380000114 0.0 0.0 -3.690000057 6.391267579 0.0 0.0 0.0 24.0" Properties=species:S:1:pos:R:3:forces:R:3 stress="-0.007831814443612682 5.902595180347797e-05 -0.0 5.902595180347797e-05 -0.0077636571639580374 -0.0 -0.0 -0.0 0.00149240100558082" free_energy=-336.47552557 energy=-336.47356388 pbc="T T T"
C        0.00000000       0.00000000      13.80748000      -0.17715300      -0.10385900       0.04613600
C       -1.22999000       2.13040000      13.78425000      -0.17158100       0.09906200       0.02660000