37
Lattice="7.380000114 0.0 0.0 -3.690000057 6.391267579 0.0 0.0 0.0 24.0" Properties=species:S:1:pos:R:3:forces:R:3 stress="-0.006754629832631247 5.226015591102052e-05 1.2589123906906532e-05 5.226015591102052e-05 -0.006694286922402207 -7.246392095150463e-06 1.2589123906906532e-05 -7.246392095150463e-06 -0.006806084833865029" free_energy=-335.42582041 energy=-335.4241534 pbc="T T T"
C        0.00000000       0.00000000      13.65000000       0.00114700      -0.33613700       0.20326100
C       -1.22999000       2.13040000      13.65000000      -0.29103200       0.17117000       0.20458300
C       -2.46001000       4.26087000      13.65000000      -0.04146200      -0.02826100       0.01773900
C        2.45998000       0.00000000      13.65000000       0.03885500      -0.02050100       0.03862000
C        1.22999000       2.13040000      13.65000000       0.29301900       0.17137700       0.20456900
C       -0.00004000       4.26087000      13.65000000       0.00463000       0.03788600       0.04032300
C        4.92002000       0.00000000      13.65000000      -0.03830800      -0.02156800       0.03862200
C        3.69004000       2.13040000      13.65000000      -0.00441200       0.05281500       0.01948100
C        2.46001000       4.26087000      13.65000000       0.04163400      -0.02907700       0.01774500
C        0.00000000       1.42027000      13.65000000      -0.00112800       0.00125200       4.20754900
C       -1.23002000       3.55073000      13.65000000       0.01553700       0.15058900       0.03921500
C       -2.46001000       5.68113000      13.65000000       0.13847600      -0.06521200       0.03571500
C        2.45998000       1.42027000      13.65000000       0.13084000      -0.08409500       0.03922000
C        1.22995000       3.55073000      13.65000000      -0.00888000       0.15137700       0.03922100
C       -0.00004000       5.68113000      13.65000000       0.00402300      -0.00089500       0.01555000
C        4.92002000       1.42027000      13.65000000      -0.13148400      -0.08509200       0.03921600
C        3.69000000       3.55073000      13.65000000      -0.00118200      -0.00549800       0.04438600
C        2.46001000       5.68113000      13.65000000      -0.14111100      -0.06543400       0.03571900
C        0.00000000       0.00000000      10.35000000      -0.00116400      -0.28274000      -0.23610000
C       -1.22999000       2.13040000      10.35000000      -0.24753800       0.14484600      -0.23739600
C       -2.46001000       4.26087000      10.35000000      -0.03569800      -0.02426400      -0.03006700
C        2.45998000       0.00000000      10.35000000       0.18878600      -0.10587300       0.00992000
C        1.22999000       2.13040000      10.35000000       0.24732200       0.14569200      -0.23739200
C       -0.00004000       4.26087000      10.35000000       0.00438800       0.21179100       0.00819900
C        4.92002000       0.00000000      10.35000000      -0.18938500      -0.10692200       0.00992600
C        3.69004000       2.13040000      10.35000000      -0.00463600       0.04443100      -0.03176500
C        2.46001000       4.26087000      10.35000000       0.03366500      -0.02447900      -0.03007700
C        1.22999000       0.71013000      10.35000000       0.24137600      -0.13873900      -0.22327500
C        0.00000000       2.84053000      10.35000000       0.00121500       0.28228100      -0.22673700
C       -1.23002000       4.97100000      10.35000000       0.04581100       0.02088100      -0.03764000
C        3.69004000       0.71013000      10.35000000      -0.00398900      -0.04645900      -0.03764500
C        2.46005000       2.84053000      10.35000000       0.17452000       0.10522000       0.00228600
C        1.23002000       4.97100000      10.35000000      -0.04512600       0.01988100      -0.03764600
C        6.15001000       0.71013000      10.35000000      -0.23871600      -0.13895500      -0.22324500
C        4.92002000       2.84053000      10.35000000      -0.18115600       0.10601700       0.00226900
C        3.69000000       4.97100000      10.35000000       0.00114900      -0.20728800       0.00578400
Li       0.00000000       1.42027000      12.00000000       0.00001700      -0.00001500      -3.73013500
37
Lattice="7.380000114 0.0 0.0 -3.690000057 6.391267579 0.0 0.0 0.0 24.0" Properties=species:S:1:pos:R:3:forces:R:3 stress="-0.006893384822008758 5.826448769012022e-05 7.48981095105991e-08 5.826448769012022e-05 -0.0068258579347758265 -4.930792209447775e-07 7.48981095105991e-08 -4.930792209447775e-07 -0.0018828635749869509" free_energy=-335.781622 energy=-335.77988194 pbc="T T T"
C        0.00000000       0.00000000      13.65981000       0.00110000      -0.07886500       1.11347900
C       -1.22999000       2.13040000      13.65987000      -0.06735300       0.04080100       1.11448400
C       -2.46001000       4.26087000      13.65086000      -0.02596400      -0.01686600      -0.15412300
C        2.45998000       0.00000000      13.65186000       0.03433300      -0.01911000       0.09201200
C        1.22999000       2.13040000      13.65987000       0.06920100       0.04097100       1.11431100
C       -0.00004000       4.26087000      13.65195000       0.00147000       0.03694300       0.09150300
C        4.92002000       0.00000000      13.65186000      -0.03376600      -0.02017300       0.09195800
C        3.69004000       2.13040000      13.65094000      -0.00124000       0.03185400      -0.15391500
C        2.46001000       4.26087000      13.65086000       0.02609900      -0.01765200      -0.15425300
C        0.00000000       1.42027000      13.85298000      -0.00094100       0.00130400      -1.86559600
C       -1.23002000       3.55073000      13.65189000      -0.00387800       0.14100200      -0.01215400
C       -2.46001000       5.68113000      13.65172000       0.12043200      -0.07344500      -0.01078000
C        2.45998000       1.42027000      13.65189000       0.12588300      -0.06622900      -0.01236900
C        1.22995000       3.55073000      13.65189000       0.00412600       0.14166000      -0.01264100
C       -0.00004000       5.68113000      13.65075000       0.00085500       0.00094700       0.03929800
C        4.92002000       1.42027000      13.65189000      -0.12655600      -0.06721200      -0.01237900
C        3.69000000       3.55073000      13.65214000      -0.00118200      -0.00180300       0.06313700
C        2.46001000       5.68113000      13.65172000      -0.12299800      -0.07357700      -0.01122600
C        0.00000000       0.00000000      10.33861000      -0.00114900      -0.44924300      -0.34779300
C       -1.22999000       2.13040000      10.33855000      -0.39051400       0.22614100      -0.34859400
C       -2.46001000       4.26087000      10.34855000      -0.03286600      -0.02017200      -0.00995000
C        2.45998000       0.00000000      10.35048000       0.20782100      -0.11808200      -0.05823300
C        1.22999000       2.13040000      10.33855000       0.39033800       0.22700000      -0.34856700
C       -0.00004000       4.26087000      10.35040000       0.00123800       0.23797700      -0.05837900
C        4.92002000       0.00000000      10.35048000      -0.20838500      -0.11912500      -0.05818400
C        3.69004000       2.13040000      10.34847000      -0.00145300       0.03811800      -0.00951800
C        2.46001000       4.26087000      10.34855000       0.03086100      -0.02038500      -0.00988800
C        1.22999000       0.71013000      10.33923000       0.38304300      -0.22077200      -0.34782300
C        0.00000000       2.84053000      10.33906000       0.00120800       0.44209200      -0.34613700
C       -1.23002000       4.97100000      10.34818000       0.03958200       0.02100100      -0.00715700
C        3.69004000       0.71013000      10.34818000      -0.00083000      -0.04480600      -0.00732000
C        2.46005000       2.84053000      10.35011000       0.19540900       0.11364300      -0.05816000
C        1.23002000       4.97100000      10.34818000      -0.03891300       0.01999800      -0.00710200
C        6.15001000       0.71013000      10.33923000      -0.38041900      -0.22099500      -0.34779500
C        4.92002000       2.84053000      10.35011000      -0.19574000       0.11444400      -0.05817700
C        3.69000000       4.97100000      10.35028000       0.00113900      -0.22774500      -0.05959000
Li       0.00000000       1.42027000      11.82005000       0.00001000       0.00036200       1.16762000
37
Lattice="7.380000114 0.0 0.0 -3.690000057 6.391267579 0.0 0.0 0.0 24.0" Properties=species:S:1:pos:R:3:forces:R:3 stress="-0.006874254596537926 5.847045749127436e-05 -6.241509125883259e-09 5.847045749127436e-05 -0.0068067713998688755 -3.4328300192357923e-07 -6.241509125883259e-09 -3.4328300192357923e-07 -0.0023556079591996004" free_energy=-335.96128398 energy=-335.95950837 pbc="T T T"
C        0.00000000       0.00000000      13.69624000       0.00110600      -0.26164800       0.24216200
C       -1.22999000       2.13040000      13.69634000      -0.22556400       0.13212500       0.24290900
C       -2.46001000       4.26087000      13.64581000      -0.04025800      -0.02517500      -0.04194400
C        2.45998000       0.00000000      13.65487000       0.03492600      -0.01945600      -0.00596900
C        1.22999000       2.13040000      13.69633000       0.22748500       0.13233500       0.24267600
C       -0.00004000       4.26087000      13.65494000       0.00145500       0.03770500      -0.00668800
C        4.92002000       0.00000000      13.65487000      -0.03438000      -0.02051400      -0.00625800
C        3.69004000       2.13040000      13.64590000      -0.00125200       0.04842600      -0.04226100
C        2.46001000       4.26087000      13.64581000       0.04039300      -0.02597300      -0.04238700
C        0.00000000       1.42027000      13.79194000      -0.00104500       0.00063800       0.10778500
C       -1.23002000       3.55073000      13.65149000       0.01018200       0.12129500       0.20271000
C       -2.46001000       5.68113000      13.65137000       0.11039600      -0.05142400       0.20343300
C        2.45998000       1.42027000      13.65149000       0.10177300      -0.06848700       0.20267000
C        1.22995000       3.55073000      13.65148000      -0.00987500       0.12201500       0.20244400
C       -0.00004000       5.68113000      13.65204000       0.00086200       0.00097400      -0.03428600
C        4.92002000       1.42027000      13.65149000      -0.10240200      -0.06947000       0.20266600
C        3.69000000       3.55073000      13.65421000      -0.00117700      -0.00174900      -0.04330100
C        2.46001000       5.68113000      13.65136000      -0.11296500      -0.05160200       0.20317900
C        0.00000000       0.00000000      10.32723000      -0.00117000      -0.39410500      -0.27819900
C       -1.22999000       2.13040000      10.32714000      -0.34284900       0.19867300      -0.27830100
C       -2.46001000       4.26087000      10.34822000      -0.03466300      -0.02116200      -0.01635000
C        2.45998000       0.00000000      10.34857000       0.20445100      -0.11611800      -0.06112500
C        1.22999000       2.13040000      10.32714000       0.34262700       0.19953000      -0.27825300
C       -0.00004000       4.26087000      10.34849000       0.00121700       0.23418300      -0.06068600
C        4.92002000       0.00000000      10.34857000      -0.20505600      -0.11716300      -0.06103300
C        3.69004000       2.13040000      10.34816000      -0.00147600       0.04019900      -0.01590600
C        2.46001000       4.26087000      10.34823000       0.03261700      -0.02137600      -0.01623100
C        1.22999000       0.71013000      10.32785000       0.33454400      -0.19293100      -0.27928700
C        0.00000000       2.84053000      10.32774000       0.00122400       0.38640600      -0.27864500
C       -1.23002000       4.97100000      10.34795000       0.04119900       0.02192900      -0.01281900
C        3.69004000       0.71013000      10.34794000      -0.00081200      -0.04663100      -0.01281700
C        2.46005000       2.84053000      10.34821000       0.19134900       0.11131500      -0.05861000
C        1.23002000       4.97100000      10.34795000      -0.04049700       0.02092800      -0.01269900
C        6.15001000       0.71013000      10.32785000      -0.33188500      -0.19315400      -0.27925000
C        4.92002000       2.84053000      10.34821000      -0.19164200       0.11211500      -0.05867400
C        3.69000000       4.97100000      10.34833000       0.00115500      -0.22299900      -0.05932300
Li       0.00000000       1.42028000      11.85825000       0.00000900       0.00034500       0.28866600
37
Lattice="7.380000114 0.0 0.0 -3.690000057 6.391267579 0.0 0.0 0.0 24.0" Properties=species:S:1:pos:R:3:forces:R:3 stress="-0.006766126692441123 5.843300843651906e-05 2.4966036503533037e-08 5.843300843651906e-05 -0.006698662220299452 -5.617358213294932e-08 2.4966036503533037e-08 -5.617358213294932e-08 -0.0019282518293503737" free_energy=-336.00267123 energy=-336.00092954 pbc="T T T"
C        0.00000000       0.00000000      13.70693000       0.00108900      -0.26596000       0.26304500
C       -1.22999000       2.13040000      13.70706000      -0.22935600       0.13434300       0.26340000
C       -2.46001000       4.26087000      13.64391000      -0.04058000      -0.02539700       0.06681600
C        2.45998000       0.00000000      13.65446000       0.03444600      -0.01916400       0.11161100
C        1.22999000       2.13040000      13.70704000       0.23125700       0.13456300       0.26322500
C       -0.00004000       4.26087000      13.65449000       0.00144500       0.03712900       0.11101300
C        4.92002000       0.00000000      13.65444000      -0.03390400      -0.02021300       0.11136200
C        3.69004000       2.13040000      13.64399000      -0.00125400       0.04883400       0.06639000
C        2.46001000       4.26087000      13.64389000       0.04070400      -0.02619100       0.06643200
C        0.00000000       1.42027000      13.79966000      -0.00102900       0.00056800       0.19362400
C       -1.23002000       3.55073000      13.66163000       0.00843900       0.12456400       0.06647500
C       -2.46001000       5.68113000      13.66154000       0.11230400      -0.05445800       0.06655900
C        2.45998000       1.42027000      13.66162000       0.10537600      -0.06878400       0.06640800
C        1.22995000       3.55073000      13.66160000      -0.00812200       0.12527800       0.06608300
C       -0.00004000       5.68113000      13.65028000       0.00086500       0.00095900      -0.07999300
C        4.92002000       1.42027000      13.66162000      -0.10599100      -0.06976300       0.06642900
C        3.69000000       3.55073000      13.65197000      -0.00117600      -0.00178400      -0.05107000
C        2.46001000       5.68113000      13.66151000      -0.11485300      -0.05463300       0.06620000
C        0.00000000       0.00000000      10.31378000      -0.00117300      -0.37409000      -0.22426400
C       -1.22999000       2.13040000      10.31369000      -0.32555600       0.18868600      -0.22440900
C       -2.46001000       4.26087000      10.34742000      -0.03468800      -0.02116800      -0.02738700
C        2.45998000       0.00000000      10.34560000       0.19937300      -0.11319800      -0.06008900
C        1.22999000       2.13040000      10.31369000       0.32533000       0.18954400      -0.22436000
C       -0.00004000       4.26087000      10.34553000       0.00121400       0.22835800      -0.05956400
C        4.92002000       0.00000000      10.34560000      -0.19998000      -0.11424300      -0.05995700
C        3.69004000       2.13040000      10.34737000      -0.00148000       0.04022200      -0.02701300
C        2.46001000       4.26087000      10.34743000       0.03263700      -0.02138400      -0.02721000
C        1.22999000       0.71013000      10.31435000       0.31739600      -0.18304900      -0.22693000
C        0.00000000       2.84053000      10.31426000       0.00122500       0.36669700      -0.22682400
C       -1.23002000       4.97100000      10.34732000       0.04098200       0.02179800      -0.02780100
C        3.69004000       0.71013000      10.34731000      -0.00080800      -0.04638600      -0.02776600
C        2.46005000       2.84053000      10.34536000       0.18645500       0.10851000      -0.06030100
C        1.23002000       4.97100000      10.34733000      -0.04027400       0.02079700      -0.02761400
C        6.15001000       0.71013000      10.31435000      -0.31473600      -0.18327300      -0.22687500
C        4.92002000       2.84053000      10.34535000      -0.18674100       0.10931100      -0.06041300
C        3.69000000       4.97100000      10.34544000       0.00115800      -0.21732400      -0.06070100
Li       0.00000000       1.42030000      11.87120000       0.00000600       0.00030300       0.09547200
37
Lattice="7.380000114 0.0 0.0 -3.690000057 6.391267579 0.0 0.0 0.0 24.0" Properties=species:S:1:pos:R:3:forces:R:3 stress="-0.006474804253990523 5.8339385799630806e-05 5.617358213294932e-08 5.8339385799630806e-05 -0.0064067655630092694 3.994565840565286e-07 5.617358213294932e-08 3.994565840565286e-07 -0.0011025438625599" free_energy=-336.05490969 energy=-336.05326859 pbc="T T T"
C        0.00000000       0.00000000      13.73005000       0.00103300      -0.28685000       0.10701800
C       -1.22999000       2.13040000      13.73022000      -0.24759300       0.14498100       0.10681300
C       -2.46001000       4.26087000      13.64844000      -0.04368800      -0.02715300       0.02388000
C        2.45998000       0.00000000      13.66281000       0.03844900      -0.02151200       0.00389900
C        1.22999000       2.13040000      13.73019000       0.24944300       0.14523500       0.10663400
C       -0.00004000       4.26087000      13.66279000       0.00143100       0.04172100       0.00365000
C        4.92002000       0.00000000      13.66277000      -0.03790300      -0.02254500       0.00362300
C        3.69004000       2.13040000      13.64848000      -0.00125900       0.05235300       0.02361300
C        2.46001000       4.26087000      13.64838000       0.04378600      -0.02793900       0.02344200
C        0.00000000       1.42027000      13.81711000      -0.00100300       0.00069600       0.30658000
C       -1.23002000       3.55073000      13.66981000       0.01061700       0.11180600       0.14692400
C       -2.46001000       5.68113000      13.66974000       0.10238500      -0.04617000       0.14673500
C        2.45998000       1.42027000      13.66980000       0.09328800      -0.06445400       0.14683400
C        1.22995000       3.55073000      13.66975000      -0.01027500       0.11247800       0.14649400
C       -0.00004000       5.68113000      13.64364000       0.00085900       0.00092700       0.07842500
C        4.92002000       1.42027000      13.66980000      -0.09386900      -0.06542100       0.14685300
C        3.69000000       3.55073000      13.64738000      -0.00116400      -0.00189100       0.07526600
C        2.46001000       5.68113000      13.66968000      -0.10486500      -0.04631600       0.14632800
C        0.00000000       0.00000000      10.29263000      -0.00118000      -0.35785600      -0.17998500
C       -1.22999000       2.13040000      10.29252000      -0.31154200       0.18052700      -0.18023900
C       -2.46001000       4.26087000      10.34509000      -0.03494400      -0.02132700      -0.02880200
C        2.45998000       0.00000000      10.34011000       0.18949700      -0.10754000      -0.07779200
C        1.22999000       2.13040000      10.29253000       0.31130900       0.18138700      -0.18013400
C       -0.00004000       4.26087000      10.34010000       0.00121200       0.21692200      -0.07751100
C        4.92002000       0.00000000      10.34013000      -0.19010000      -0.10858500      -0.07761100
C        3.69004000       2.13040000      10.34508000      -0.00148600       0.04047700      -0.02857300
C        2.46001000       4.26087000      10.34511000       0.03288500      -0.02154700      -0.02854600
C        1.22999000       0.71013000      10.29297000       0.30419400      -0.17510600      -0.17867800
C        0.00000000       2.84053000      10.29291000       0.00122800       0.35120000      -0.17885600
C       -1.23002000       4.97100000      10.34501000       0.04080600       0.02168200      -0.02736300
C        3.69004000       0.71013000      10.34501000      -0.00080400      -0.04626000      -0.02736300
C        2.46005000       2.84053000      10.33990000       0.17715800       0.10316100      -0.07517400
C        1.23002000       4.97100000      10.34503000      -0.04009000       0.02068200      -0.02709500
C        6.15001000       0.71013000      10.29298000      -0.30153900      -0.17533700      -0.17860000
C        4.92002000       2.84053000      10.33988000      -0.17743900       0.10396300      -0.07533800
C        3.69000000       4.97100000      10.33994000       0.00116000      -0.20660900      -0.07518100
Li       0.00000000       1.42032000      11.88225000       0.00000300       0.00022100      -0.04017000
37
Lattice="7.380000114 0.0 0.0 -3.690000057 6.391267579 0.0 0.0 0.0 24.0" Properties=species:S:1:pos:R:3:forces:R:3 stress="-0.006177708419598479 5.813965750760255e-05 1.373132007694317e-07 5.813965750760255e-05 -0.006109688453144604 -1.810037646506145e-07 1.373132007694317e-07 -1.810037646506145e-07 -0.0002044406314183061" free_energy=-336.12508309 energy=-336.12359937 pbc="T T T"
C        0.00000000       0.00000000      13.76853000       0.00089800      -0.30439400      -0.01116200
C       -1.22999000       2.13040000      13.76873000      -0.26283400       0.15357000      -0.01260400
C       -2.46001000       4.26087000      13.65528000      -0.04638800      -0.02871300       0.07439200
C        2.45998000       0.00000000      13.67286000       0.03777300      -0.02113700       0.09049900
C        1.22999000       2.13040000      13.76866000       0.26458200       0.15392500      -0.01279900
C       -0.00004000       4.26087000      13.67275000       0.00139300       0.04070700       0.09078200
C        4.92002000       0.00000000      13.67277000      -0.03718800      -0.02209500       0.09019000
C        3.69004000       2.13040000      13.65525000      -0.00125100       0.05536100       0.07462400
C        2.46001000       4.26087000      13.65514000       0.04644300      -0.02947000       0.07383400
C        0.00000000       1.42027000      13.85966000      -0.00094100       0.00130500       0.12561200
C       -1.23002000       3.55073000      13.69218000       0.01101600       0.10017700       0.10764800
C       -2.46001000       5.68113000      13.69212000       0.09256100      -0.04014200       0.10755300
C        2.45998000       1.42027000      13.69215000       0.08307700      -0.05902000       0.10774800
C        1.22995000       3.55073000      13.69204000      -0.01065300       0.10071700       0.10719100
C       -0.00004000       5.68113000      13.64298000       0.00081500       0.00092100       0.10823100
C        4.92002000       1.42027000      13.69216000      -0.08360100      -0.05997600       0.10777000
C        3.69000000       3.55073000      13.64882000      -0.00113500      -0.00194300       0.13596400
C        2.46001000       5.68113000      13.69199000      -0.09488100      -0.04020200       0.10711200
C        0.00000000       0.00000000      10.25170000      -0.00119200      -0.35359300      -0.04804700
C       -1.22999000       2.13040000      10.25156000      -0.30805600       0.17851900      -0.04674400
C       -2.46001000       4.26087000      10.33988000      -0.03430400      -0.02098800      -0.09468400
C        2.45998000       0.00000000      10.32687000       0.16304600      -0.09230300      -0.07900500
C        1.22999000       2.13040000      10.25158000       0.30783100       0.17939700      -0.04661100
C       -0.00004000       4.26087000      10.32693000       0.00123000       0.18615500      -0.07929100
C        4.92002000       0.00000000      10.32692000      -0.16360200      -0.09333100      -0.07874100
C        3.69004000       2.13040000      10.33993000      -0.00148300       0.03967400      -0.09484200
C        2.46001000       4.26087000      10.33994000       0.03225100      -0.02121200      -0.09429900
C        1.22999000       0.71013000      10.25191000       0.30193300      -0.17334200      -0.05140300
C        0.00000000       2.84053000      10.25185000       0.00123500       0.34834100      -0.05091300
C       -1.23002000       4.97100000      10.33996000       0.03953600       0.02096700      -0.09708800
C        3.69004000       0.71013000      10.33996000      -0.00080800      -0.04496200      -0.09707000
C        2.46005000       2.84053000      10.32691000       0.15103300       0.08818600      -0.07935600
C        1.23002000       4.97100000      10.34002000      -0.03882500       0.01996600      -0.09669900
C        6.15001000       0.71013000      10.25193000      -0.29931200      -0.17360100      -0.05128300
C        4.92002000       2.84053000      10.32687000      -0.15134500       0.08899000      -0.07962800
C        3.69000000       4.97100000      10.32691000       0.00114900      -0.17653200      -0.07879400
Li       0.00000000       1.42038000      11.89431000      -0.00000400       0.00008000      -0.12808700
37
Lattice="7.380000114 0.0 0.0 -3.690000057 6.391267579 0.0 0.0 0.0 24.0" Properties=species:S:1:pos:R:3:forces:R:3 stress="-0.006202743112702397 5.826448769012022e-05 1.3107169164354844e-07 5.826448769012022e-05 -0.0061342487915549545 2.390497995213288e-06 1.3107169164354844e-07 2.390497995213288e-06 -2.4067259189405844e-05" free_energy=-336.1319097 energy=-336.13040788 pbc="T T T"
C        0.00000000       0.00000000      13.76568000       0.00089500      -0.29072900       0.05870700
C       -1.22999000       2.13040000      13.76581000      -0.25093200       0.14681200       0.05814900
C       -2.46001000       4.26087000      13.65818000      -0.04438300      -0.02745900       0.09522000
C        2.45998000       0.00000000      13.67635000       0.03755300      -0.02092200       0.07826400
C        1.22999000       2.13040000      13.76574000       0.25267800       0.14716800       0.05796900
C       -0.00004000       4.26087000      13.67626000       0.00139700       0.04057400       0.07830800
C        4.92002000       0.00000000      13.67625000      -0.03696800      -0.02188200       0.07798800
C        3.69004000       2.13040000      13.65817000      -0.00124900       0.05311500       0.09546300
C        2.46001000       4.26087000      13.65802000       0.04444700      -0.02821900       0.09472600
C        0.00000000       1.42027000      13.86048000      -0.00093400       0.00149300       0.01974700
C       -1.23002000       3.55073000      13.69456000       0.00958500       0.10543800       0.07474200
C       -2.46001000       5.68113000      13.69449000       0.09628000      -0.04385300       0.07494100
C        2.45998000       1.42027000      13.69454000       0.08828700      -0.06026600       0.07472300
C        1.22995000       3.55073000      13.69441000      -0.00922300       0.10597200       0.07429600
C       -0.00004000       5.68113000      13.64779000       0.00080900       0.00098500       0.11408200
C        4.92002000       1.42027000      13.69454000      -0.08881600      -0.06122100       0.07475100
C        3.69000000       3.55073000      13.65478000      -0.00114200      -0.00514900       0.06291200
C        2.46001000       5.68113000      13.69435000      -0.09859800      -0.04390800       0.07452700
C        0.00000000       0.00000000      10.25298000      -0.00119500      -0.35306600      -0.06631500
C       -1.22999000       2.13040000      10.25289000      -0.30760200       0.17834800      -0.06593700
C       -2.46001000       4.26087000      10.33615000      -0.03441100      -0.02097200      -0.07049400
C        2.45998000       0.00000000      10.32447000       0.16738800      -0.09472600      -0.07702400
C        1.22999000       2.13040000      10.25292000       0.30738000       0.17923100      -0.06581200
C       -0.00004000       4.26087000      10.32451000       0.00122900       0.19130300      -0.07703400
C        4.92002000       0.00000000      10.32453000      -0.16794700      -0.09575400      -0.07680600
C        3.69004000       2.13040000      10.33619000      -0.00148200       0.03989500      -0.07078500
C        2.46001000       4.26087000      10.33623000       0.03235200      -0.02119100      -0.07014100
C        1.22999000       0.71013000      10.25305000       0.30167200      -0.17308500      -0.07797300
C        0.00000000       2.84053000      10.25301000       0.00123800       0.34809400      -0.06465000
C       -1.23002000       4.97100000      10.33610000       0.03956500       0.02108500      -0.07048400
C        3.69004000       0.71013000      10.33610000      -0.00080800      -0.04497100      -0.07030400
C        2.46005000       2.84053000      10.32447000       0.15583600       0.09106500      -0.07469000
C        1.23002000       4.97100000      10.33618000      -0.03884800       0.02008100      -0.07013200
C        6.15001000       0.71013000      10.25307000      -0.29905000      -0.17334700      -0.07785600
C        4.92002000       2.84053000      10.32442000      -0.15615100       0.09187100      -0.07492900
C        3.69000000       4.97100000      10.32450000       0.00115100      -0.18186700      -0.07478600
Li       0.00000000       1.42038000      11.88782000      -0.00000500       0.00005800      -0.04336100
37