37
Lattice="7.380000114 0.0 0.0 -3.690000057 6.391267579 0.0 0.0 0.0 24.0" Properties=species:S:1:pos:R:3:forces:R:3 stress="-0.006810366509125385 5.233505402053112e-05 -1.2570399379528882e-05 5.233505402053112e-05 -0.006749873802677323 7.246392095150463e-06 -1.2570399379528882e-05 7.246392095150463e-06 -0.0020917918514667673" free_energy=-335.98316708 energy=-335.98182506 pbc="T T T"
C        0.00000000       0.00000000      13.75000000       0.00113900      -0.30630900       0.12714800
C       -1.22999000       2.13040000      13.75000000      -0.26527500       0.15642400       0.12472400
C       -2.46001000       4.26087000      13.75000000      -0.03831500      -0.02664500       0.01562200
C        2.45998000       0.00000000      13.75000000       0.03694400      -0.01932500       0.03748300
C        1.22999000       2.13040000      13.75000000       0.26724700       0.15662900       0.12471400
C       -0.00004000       4.26087000      13.75000000       0.00462200       0.03547600       0.03556900
C        4.92002000       0.00000000      13.75000000      -0.03641200      -0.02038900       0.03748300
C        3.69004000       2.13040000      13.75000000      -0.00442500       0.04930100       0.01373900
C        2.46001000       4.26087000      13.75000000       0.03847600      -0.02746100       0.01562300
C        0.00000000       1.42027000      13.75000000      -0.00112300       0.00173400       2.77397500
C       -1.23002000       3.55073000      13.75000000       0.00759700       0.14814100       0.02556100
C       -2.46001000       5.68113000      13.75000000       0.13287200      -0.07107400       0.02966400
C        2.45998000       1.42027000      13.75000000       0.13285200      -0.07603400       0.02569200
C        1.22995000       3.55073000      13.75000000      -0.00091700       0.14894700       0.02559700
C       -0.00004000       5.68113000      13.75000000       0.00403000      -0.00079300       0.00726900
C        4.92002000       1.42027000      13.75000000      -0.13348100      -0.07703200       0.02569000
C        3.69000000       3.55073000      13.75000000      -0.00117500      -0.00564100       0.03688800
C        2.46001000       5.68113000      13.75000000      -0.13549700      -0.07129200       0.02966600
C        0.00000000       0.00000000      10.25000000      -0.00116700      -0.22711700      -0.15221100
C       -1.22999000       2.13040000      10.25000000      -0.19949600       0.11717800      -0.14979900
C       -2.46001000       4.26087000      10.25000000      -0.03302600      -0.02292800      -0.03049500
C        2.45998000       0.00000000      10.25000000       0.18533500      -0.10375700       0.00998500
C        1.22999000       2.13040000      10.25000000       0.19927000       0.11801900      -0.14978800
C       -0.00004000       4.26087000      10.25000000       0.00439300       0.20758900       0.01187900
C        4.92002000       0.00000000      10.25000000      -0.18594000      -0.10480800       0.00999000
C        3.69004000       2.13040000      10.25000000      -0.00464100       0.04142100      -0.02858700
C        2.46001000       4.26087000      10.25000000       0.03099000      -0.02313800      -0.03050100
C        1.22999000       0.71013000      10.25000000       0.19641700      -0.11233500      -0.14479100
C        0.00000000       2.84053000      10.25000000       0.00121500       0.23003900      -0.14078000
C       -1.23002000       4.97100000      10.25000000       0.04121400       0.01808100      -0.03290200
C        3.69004000       0.71013000      10.25000000      -0.00398800      -0.04112300      -0.03280400
C        2.46005000       2.84053000      10.25000000       0.17403700       0.10504500       0.00709400
C        1.23002000       4.97100000      10.25000000      -0.04052500       0.01708300      -0.03290600
C        6.15001000       0.71013000      10.25000000      -0.19374600      -0.11254800      -0.14476300
C        4.92002000       2.84053000      10.25000000      -0.18067100       0.10584300       0.00708600
C        3.69000000       4.97100000      10.25000000       0.00115400      -0.20729000       0.00301500
Li       0.00000000       1.42027000      12.00000000       0.00001900       0.00008700      -2.49082400
37
Lattice="7.380000114 0.0 0.0 -3.690000057 6.391267579 0.0 0.0 0.0 24.0" Properties=species:S:1:pos:R:3:forces:R:3 stress="-0.0068005798228159995 5.870763483805793e-05 1.1234716426589864e-07 5.870763483805793e-05 -0.006733408701603243 9.362263688824886e-08 1.1234716426589864e-07 9.362263688824886e-08 0.0007506663025699796" free_energy=-336.22918348 energy=-336.22785359 pbc="T T T"
C        0.00000000       0.00000000      13.75613000       0.00108100      -0.17654200       0.75134200
C       -1.22999000       2.13040000      13.75602000      -0.15181100       0.08965400       0.74987700
C       -2.46001000       4.26087000      13.75075000      -0.02728900      -0.01778800      -0.09820500
C        2.45998000       0.00000000      13.75181000       0.03281000      -0.01814800       0.06354600
C        1.22999000       2.13040000      13.75602000       0.15365200       0.08984200       0.74976700
C       -0.00004000       4.26087000      13.75172000       0.00142600       0.03503700       0.06371400
C        4.92002000       0.00000000      13.75181000      -0.03233200      -0.01920800       0.06351400
C        3.69004000       2.13040000      13.75066000      -0.00128600       0.03353300      -0.09861400
C        2.46001000       4.26087000      13.75075000       0.02737300      -0.01859300      -0.09828700
C        0.00000000       1.42027000      13.88382000      -0.00100600       0.00163600      -0.86919200
C       -1.23002000       3.55073000      13.75123000      -0.00098100       0.14928100      -0.00610200
C       -2.46001000       5.68113000      13.75143000       0.12953900      -0.07542200      -0.00690700
C        2.45998000       1.42027000      13.75124000       0.13177500      -0.07278600      -0.00585900
C        1.22995000       3.55073000      13.75123000       0.00134800       0.15001800      -0.00648000
C       -0.00004000       5.68113000      13.75035000       0.00089100       0.00103300       0.03595200
C        4.92002000       1.42027000      13.75124000      -0.13235100      -0.07377800      -0.00586100
C        3.69000000       3.55073000      13.75178000      -0.00114400      -0.00199200       0.04557300
C        2.46001000       5.68113000      13.75143000      -0.13207400      -0.07560500      -0.00723800
C        0.00000000       0.00000000      10.24266000      -0.00118800      -0.29832600      -0.21096000
C       -1.22999000       2.13040000      10.24277000      -0.26022000       0.15102300      -0.20945300
C       -2.46001000       4.26087000      10.24853000      -0.03444700      -0.02128000       0.00244300
C        2.45998000       0.00000000      10.25048000       0.20017100      -0.11351400      -0.03292300
C        1.22999000       2.13040000      10.24277000       0.25995400       0.15187000      -0.20943100
C       -0.00004000       4.26087000      10.25057000       0.00120100       0.22907500      -0.03250200
C        4.92002000       0.00000000      10.25048000      -0.20081600      -0.11456100      -0.03289100
C        3.69004000       2.13040000      10.24862000      -0.00149600       0.04002900       0.00224900
C        2.46001000       4.26087000      10.24853000       0.03236600      -0.02148900       0.00248100
C        1.22999000       0.71013000      10.24301000       0.25709700      -0.14746700      -0.20707900
C        0.00000000       2.84053000      10.24321000       0.00124100       0.29666900      -0.20805800
C       -1.23002000       4.97100000      10.24841000       0.03899600       0.02042900       0.00456000
C        3.69004000       0.71013000      10.24842000      -0.00079300      -0.04398100       0.00484800
C        2.46005000       2.84053000      10.25034000       0.19261700       0.11210000      -0.03254700
C        1.23002000       4.97100000      10.24841000      -0.03825400       0.01943000       0.00459600
C        6.15001000       0.71013000      10.24302000      -0.25438400      -0.14768200      -0.20705800
C        4.92002000       2.84053000      10.25034000      -0.19286200       0.11290100      -0.03256400
C        3.69000000       4.97100000      10.25015000       0.00118000      -0.22504700      -0.03179200
Li       0.00000000       1.42027000      11.87984000       0.00001500      -0.00035000       0.10553900
37
Lattice="7.380000114 0.0 0.0 -3.690000057 6.391267579 0.0 0.0 0.0 24.0" Properties=species:S:1:pos:R:3:forces:R:3 stress="-0.007063584534362467 5.880749898407205e-05 3.1207545629416294e-08 5.880749898407205e-05 -0.006996688039551252 -3.3079998367181266e-07 3.1207545629416294e-08 -3.3079998367181266e-07 0.0005037022694770306" free_energy=-336.2860628 energy=-336.28476795 pbc="T T T"
C        0.00000000       0.00000000      13.78391000       0.00108600      -0.25942400       0.12809300
C       -1.22999000       2.13040000      13.78373000      -0.22351700       0.13093600       0.12815900
C       -2.46001000       4.26087000      13.74712000      -0.03627400      -0.02294700      -0.02750500
C        2.45998000       0.00000000      13.75416000       0.03280100      -0.01812300       0.01069800
C        1.22999000       2.13040000      13.78373000       0.22540300       0.13114600       0.12799900
C       -0.00004000       4.26087000      13.75407000       0.00142100       0.03504400       0.01066100
C        4.92002000       0.00000000      13.75416000      -0.03233000      -0.01918100       0.01047500
C        3.69004000       2.13040000      13.74702000      -0.00128600       0.04390000      -0.02734100
C        2.46001000       4.26087000      13.74712000       0.03635800      -0.02375600      -0.02784900
C        0.00000000       1.42027000      13.85170000      -0.00104900       0.00196900       0.22040800
C       -1.23002000       3.55073000      13.75101000       0.00355700       0.13218200       0.14976000
C       -2.46001000       5.68113000      13.75118000       0.11696800      -0.06293200       0.14968700
C        2.45998000       1.42027000      13.75102000       0.11472300      -0.06815800       0.14981100
C        1.22995000       3.55073000      13.75100000      -0.00317300       0.13293400       0.14956800
C       -0.00004000       5.68113000      13.75168000       0.00089300       0.00102800      -0.02202200
C        4.92002000       1.42027000      13.75102000      -0.11528400      -0.06915000       0.14981000
C        3.69000000       3.55073000      13.75346000      -0.00114400      -0.00198500      -0.02461300
C        2.46001000       5.68113000      13.75116000      -0.11950000      -0.06312700       0.14951100
C        0.00000000       0.00000000      10.23486000      -0.00119200      -0.29104300      -0.18291700
C       -1.22999000       2.13040000      10.23503000      -0.25387900       0.14735200      -0.18241400
C       -2.46001000       4.26087000      10.24862000      -0.03432400      -0.02119500      -0.00502800
C        2.45998000       0.00000000      10.24926000       0.19933400      -0.11303200      -0.02882600
C        1.22999000       2.13040000      10.23503000       0.25360800       0.14819900      -0.18238600
C       -0.00004000       4.26087000      10.24937000       0.00119800       0.22811200      -0.02893100
C        4.92002000       0.00000000      10.24927000      -0.19998300      -0.11407900      -0.02876300
C        3.69004000       2.13040000      10.24870000      -0.00149900       0.03990100      -0.00520200
C        2.46001000       4.26087000      10.24862000       0.03223800      -0.02140500      -0.00494800
C        1.22999000       0.71013000      10.23536000       0.25045000      -0.14381300      -0.18439900
C        0.00000000       2.84053000      10.23552000       0.00124100       0.28909400      -0.18434700
C       -1.23002000       4.97100000      10.24858000       0.03866700       0.02025900      -0.00402300
C        3.69004000       0.71013000      10.24860000      -0.00079400      -0.04359800      -0.00393200
C        2.46005000       2.84053000      10.24914000       0.19162300       0.11152900      -0.02920000
C        1.23002000       4.97100000      10.24858000      -0.03792500       0.01926100      -0.00394200
C        6.15001000       0.71013000      10.23536000      -0.24774000      -0.14403000      -0.18437500
C        4.92002000       2.84053000      10.24914000      -0.19187000       0.11232900      -0.02925000
C        3.69000000       4.97100000      10.24897000       0.00117900      -0.22384300      -0.02916200
Li       0.00000000       1.42026000      11.88374000       0.00001400      -0.00035400      -0.10326500
37
Lattice="7.380000114 0.0 0.0 -3.690000057 6.391267579 0.0 0.0 0.0 24.0" Properties=species:S:1:pos:R:3:forces:R:3 stress="-0.007214497983517199 5.896977822134502e-05 4.1755696052158994e-06 5.896977822134502e-05 -0.007147108409485037 -2.6588828876262677e-06 4.1755696052158994e-06 -2.6588828876262677e-06 0.0007436071557486054" free_energy=-336.30586955 energy=-336.30456779 pbc="T T T"
C        0.00000000       0.00000000      13.79200000       0.00055500      -0.25639300       0.15174100
C       -1.22999000       2.13040000      13.79183000      -0.22169500       0.12991600       0.15196100
C       -2.46001000       4.26087000      13.74551000      -0.03653600      -0.02244200       0.05839000
C        2.45998000       0.00000000      13.75483000       0.03189600      -0.01759500       0.07002500
C        1.22999000       2.13040000      13.79182000       0.22252600       0.13013200       0.15182800
C       -0.00004000       4.26087000      13.75475000       0.00089500       0.03493800       0.06989800
C        4.92002000       0.00000000      13.75482000      -0.03246900      -0.01864800       0.06983400
C        3.69004000       2.13040000      13.74541000      -0.00180900       0.04390100       0.05856500
C        2.46001000       4.26087000      13.74548000       0.03557000      -0.02324900       0.05809400
C        0.00000000       1.42027000      13.86151000      -0.00156200       0.00234400       0.09585000
C       -1.23002000       3.55073000      13.75879000       0.00645900       0.11836900       0.06437600
C       -2.46001000       5.68113000      13.75895000       0.11589200      -0.06389200       0.06058500
C        2.45998000       1.42027000      13.75881000       0.12502600      -0.06108400       0.06298800
C        1.22995000       3.55073000      13.75877000       0.01223600       0.12483200       0.06666700
C       -0.00004000       5.68113000      13.75060000       0.00036800       0.00136000      -0.05233100
C        4.92002000       1.42027000      13.75881000      -0.12662800      -0.06207400       0.06300100
C        3.69000000       3.55073000      13.75227000      -0.00166900      -0.00166500      -0.06332700
C        2.46001000       5.68113000      13.75893000      -0.11946200      -0.06408400       0.06031300
C        0.00000000       0.00000000      10.22494000      -0.00171500      -0.29058100      -0.11425000
C       -1.22999000       2.13040000      10.22514000      -0.25419800       0.14752400      -0.11430300
C       -2.46001000       4.26087000      10.24836000      -0.03460700      -0.02072500      -0.02188000
C        2.45998000       0.00000000      10.24770000       0.19714200      -0.11175400      -0.05367400
C        1.22999000       2.13040000      10.22514000       0.25288100       0.14837200      -0.11425600
C       -0.00004000       4.26087000      10.24780000       0.00067600       0.22651900      -0.05372700
C        4.92002000       0.00000000      10.24771000      -0.19883500      -0.11280200      -0.05358100
C        3.69004000       2.13040000      10.24844000      -0.00202400       0.03994900      -0.02195000
C        2.46001000       4.26087000      10.24837000       0.03147500      -0.02093500      -0.02175200
C        1.22999000       0.71013000      10.22537000       0.24964500      -0.14353500      -0.11547000
C        0.00000000       2.84053000      10.22553000       0.00071900       0.28917100      -0.11527800
C       -1.23002000       4.97100000      10.24838000       0.03775000       0.02036200      -0.02149300
C        3.69004000       0.71013000      10.24840000      -0.00131600      -0.04281800      -0.02144800
C        2.46005000       2.84053000      10.24756000       0.18960100       0.11097100      -0.05404200
C        1.23002000       4.97100000      10.24839000      -0.03805300       0.01936400      -0.02136000
C        6.15001000       0.71013000      10.22538000      -0.24798300      -0.14375500      -0.11543000
C        4.92002000       2.84053000      10.24755000      -0.19089400       0.11177200      -0.05412300
C        3.69000000       4.97100000      10.24739000       0.00065600      -0.22173300      -0.05420900
Li       0.00000000       1.42024000      11.87856000      -0.00051200      -0.00003500      -0.05623000
37
Lattice="7.380000114 0.0 0.0 -3.690000057 6.391267579 0.0 0.0 0.0 24.0" Properties=species:S:1:pos:R:3:forces:R:3 stress="-0.007253831974028515 5.8720117856309686e-05 -6.241509125883259e-08 5.8720117856309686e-05 -0.007187796807476671 1.1234716426589864e-07 -6.241509125883259e-08 1.1234716426589864e-07 0.0009997711732931062" free_energy=-336.3240591 energy=-336.32276308 pbc="T T T"
C        0.00000000       0.00000000      13.80503000       0.00105800      -0.26431900       0.07007000
C       -1.22999000       2.13040000      13.80487000      -0.22770600       0.13331100       0.07365600
C       -2.46001000       4.26087000      13.74922000      -0.03689100      -0.02336100       0.01439600
C        2.45998000       0.00000000      13.75999000       0.03344100      -0.01852500       0.03018400
C        1.22999000       2.13040000      13.80485000       0.22956800       0.13343700       0.07454000
C       -0.00004000       4.26087000      13.75989000       0.00142000       0.03575000       0.03312400
C        4.92002000       0.00000000      13.75996000      -0.03296900      -0.01957000       0.03020300
C        3.69004000       2.13040000      13.74913000      -0.00129300       0.04461900       0.01562300
C        2.46001000       4.26087000      13.74917000       0.03691200      -0.02421300       0.01533900
C        0.00000000       1.42027000      13.86995000      -0.00102100       0.00181300       0.13811800
C       -1.23002000       3.55073000      13.76509000       0.00229300       0.12726100       0.09979600
C       -2.46001000       5.68113000      13.76498000       0.11157700      -0.06126500       0.10327100
C        2.45998000       1.42027000      13.76501000       0.11093100      -0.06445700       0.10088400
C        1.22995000       3.55073000      13.76522000      -0.00182500       0.12814200       0.09738500
C       -0.00004000       5.68113000      13.74668000       0.00089200       0.00111100       0.06417000
C        4.92002000       1.42027000      13.76501000      -0.11148700      -0.06546000       0.10102200
C        3.69000000       3.55073000      13.74755000      -0.00114700      -0.00198000       0.05749400
C        2.46001000       5.68113000      13.76494000      -0.11407200      -0.06142900       0.10284200
C        0.00000000       0.00000000      10.21449000      -0.00118300      -0.29097000      -0.11097200
C       -1.22999000       2.13040000      10.21470000      -0.25371500       0.14724200      -0.11127100
C       -2.46001000       4.26087000      10.24676000      -0.03385700      -0.02088700      -0.04418100
C        2.45998000       0.00000000      10.24353000       0.19579900      -0.11101400      -0.04892400
C        1.22999000       2.13040000      10.21471000       0.25342100       0.14806800      -0.11115500
C       -0.00004000       4.26087000      10.24363000       0.00119800       0.22409400      -0.04871000
C        4.92002000       0.00000000      10.24354000      -0.19645500      -0.11206400      -0.04881400
C        3.69004000       2.13040000      10.24682000      -0.00150200       0.03936900      -0.04409200
C        2.46001000       4.26087000      10.24677000       0.03177200      -0.02109900      -0.04401600
C        1.22999000       0.71013000      10.21483000       0.25027500      -0.14411400      -0.11117400
C        0.00000000       2.84053000      10.21500000       0.00124800       0.28910000      -0.11134900
C       -1.23002000       4.97100000      10.24682000       0.03790000       0.01985000      -0.04370700
C        3.69004000       0.71013000      10.24684000      -0.00079100      -0.04269900      -0.04369900
C        2.46005000       2.84053000      10.24336000       0.18862300       0.10973900      -0.04869500
C        1.23002000       4.97100000      10.24683000      -0.03715500       0.01885300      -0.04353700
C        6.15001000       0.71013000      10.21483000      -0.24759800      -0.14435800      -0.11118200
C        4.92002000       2.84053000      10.24335000      -0.18887800       0.11054500      -0.04881000
C        3.69000000       4.97100000      10.24318000       0.00117900      -0.22018100      -0.04880000
Li      -0.00003000       1.42023000      11.87349000       0.00003800      -0.00033800       0.00097100
37
Lattice="7.380000114 0.0 0.0 -3.690000057 6.391267579 0.0 0.0 0.0 24.0" Properties=species:S:1:pos:R:3:forces:R:3 stress="-0.007381033930014018 5.8626495219421444e-05 -8.738112776236562e-08 5.8626495219421444e-05 -0.007314480718204723 3.9321507493064526e-07 -8.738112776236562e-08 3.9321507493064526e-07 0.0012614651679231394" free_energy=-336.34176925 energy=-336.34048172 pbc="T T T"
C        0.00000000       0.00000000      13.81715000       0.00104200      -0.26643400       0.05886400
C       -1.22999000       2.13040000      13.81720000      -0.22973500       0.13449700       0.06008400
C       -2.46001000       4.26087000      13.75207000      -0.03674700      -0.02325100       0.05303200
C        2.45998000       0.00000000      13.76469000       0.03308100      -0.01832000       0.07765100
C        1.22999000       2.13040000      13.81722000       0.23165100       0.13465900       0.06021500
C       -0.00004000       4.26087000      13.76474000       0.00142200       0.03547500       0.07816300
C        4.92002000       0.00000000      13.76465000      -0.03261000      -0.01936200       0.07749100
C        3.69004000       2.13040000      13.75206000      -0.00129200       0.04449500       0.05319000
C        2.46001000       4.26087000      13.75206000       0.03677300      -0.02412400       0.05302200
C        0.00000000       1.42027000      13.88167000      -0.00104100       0.00136300       0.12011800
C       -1.23002000       3.55073000      13.77421000       0.00107400       0.12611900       0.02141700
C       -2.46001000       5.68113000      13.77413000       0.10999200      -0.06174800       0.02216900
C        2.45998000       1.42027000      13.77413000       0.11042900      -0.06295200       0.02181700
C        1.22995000       3.55073000      13.77431000      -0.00061400       0.12694500       0.01991600
C       -0.00004000       5.68113000      13.74785000       0.00088600       0.00104700       0.07652200
C        4.92002000       1.42027000      13.77414000      -0.11102700      -0.06396800       0.02148700
C        3.69000000       3.55073000      13.74790000      -0.00114500      -0.00197200       0.09053900
C        2.46001000       5.68113000      13.77405000      -0.11245800      -0.06187300       0.02221200
C        0.00000000       0.00000000      10.20213000      -0.00117900      -0.28983300      -0.07808100
C       -1.22999000       2.13040000      10.20233000      -0.25272500       0.14672300      -0.07841200
C       -2.46001000       4.26087000      10.24344000      -0.03358200      -0.02068700      -0.05265800
C        2.45998000       0.00000000      10.23841000       0.19255200      -0.10917200      -0.03998700
C        1.22999000       2.13040000      10.20234000       0.25242400       0.14754200      -0.07827200
C       -0.00004000       4.26087000      10.23852000       0.00119700       0.22040300      -0.03965500
C        4.92002000       0.00000000      10.23843000      -0.19320600      -0.11022200      -0.03986900
C        3.69004000       2.13040000      10.24351000      -0.00150000       0.03904300      -0.05242200
C        2.46001000       4.26087000      10.24347000       0.03149900      -0.02089900      -0.05246400
C        1.22999000       0.71013000      10.20240000       0.24939500      -0.14373900      -0.07821600
C        0.00000000       2.84053000      10.20257000       0.00125400       0.28823700      -0.07844000
C       -1.23002000       4.97100000      10.24355000       0.03743900       0.01961000      -0.05275500
C        3.69004000       0.71013000      10.24358000      -0.00079100      -0.04214700      -0.05282700
C        2.46005000       2.84053000      10.23823000       0.18574100       0.10803300      -0.04012600
C        1.23002000       4.97100000      10.24358000      -0.03669300       0.01861100      -0.05255000
C        6.15001000       0.71013000      10.20241000      -0.24673700      -0.14400100      -0.07822000
C        4.92002000       2.84053000      10.23821000      -0.18600300       0.10884100      -0.04029200
C        3.69000000       4.97100000      10.23804000       0.00117600      -0.21670800      -0.04021400
Li      -0.00005000       1.42021000      11.87061000       0.00005800      -0.00023300       0.03755200
37
Lattice="7.380000114 0.0 0.0 -3.690000057 6.391267579 0.0 0.0 0.0 24.0" Properties=species:S:1:pos:R:3:forces:R:3 stress="-0.0073847101788891605 6.53173930023683e-05 -1.1983697521695855e-06 6.53173930023683e-05 -0.007315161042699444 2.1845281940591407e-06 -1.1983697521695855e-06 2.1845281940591407e-06 0.0013392468546498965" free_energy=-336.34695905 energy=-336.34568462 pbc="T T T"
C        0.00000000       0.00000000      13.82002000       0.00089800      -0.26639600       0.04958200
C       -1.22999000       2.13040000      13.82009000      -0.23008100       0.13484600       0.05039200
C       -2.46001000       4.26087000      13.75430000      -0.03739700      -0.02330200       0.04460800
C        2.45998000       0.00000000      13.76807000       0.03408200      -0.01876300       0.03998300
C        1.22999000       2.13040000      13.82011000       0.23170100       0.13504300       0.05039000
C       -0.00004000       4.26087000      13.76813000       0.00127400       0.03708200       0.04006700
C        4.92002000       0.00000000      13.76803000      -0.03388900      -0.01980800       0.03980800
C        3.69004000       2.13040000      13.75429000      -0.00144100       0.04530600       0.04469800
C        2.46001000       4.26087000      13.75428000       0.03715300      -0.02415600       0.04443500
C        0.00000000       1.42027000      13.88622000      -0.00118200       0.00146600       0.09627600
C       -1.23002000       3.55073000      13.77479000       0.00175000       0.12391700       0.05666200
C       -2.46001000       5.68113000      13.77471000       0.10817200      -0.05960300       0.05715000
C        2.45998000       1.42027000      13.77472000       0.10777800      -0.06223100       0.05689300
C        1.22995000       3.55073000      13.77485000      -0.00159300       0.12469300       0.05559100
C       -0.00004000       5.68113000      13.75070000       0.00074100       0.00125100       0.08791100
C        4.92002000       1.42027000      13.77472000      -0.10864200      -0.06323900       0.05668100
C        3.69000000       3.55073000      13.75142000      -0.00128500      -0.00173300       0.07157300
C        2.46001000       5.68113000      13.77464000      -0.11092200      -0.05973800       0.05707900
C        0.00000000       0.00000000      10.19887000      -0.00132200      -0.28775400      -0.07324500
C       -1.22999000       2.13040000      10.19905000      -0.25125500       0.14602600      -0.07359200
C       -2.46001000       4.26087000      10.24138000      -0.02371500      -0.03167300      -0.04328000
C        2.45998000       0.00000000      10.23686000       0.19117300      -0.10824300      -0.05279900
C        1.22999000       2.13040000      10.19907000       0.25067300       0.14684800      -0.07346200
C       -0.00004000       4.26087000      10.23698000       0.00105400       0.21921300      -0.05258800
C        4.92002000       0.00000000      10.23689000      -0.19210900      -0.10929000      -0.05269500
C        3.69004000       2.13040000      10.24146000      -0.00637500       0.04198900      -0.04571700
C        2.46001000       4.26087000      10.24142000       0.03134800      -0.02064600      -0.04693500
C        1.22999000       0.71013000      10.19913000       0.24767600      -0.14260100      -0.07336400
C        0.00000000       2.84053000      10.19929000       0.00111200       0.28665000      -0.07349500
C       -1.23002000       4.97100000      10.24149000       0.03722800       0.01981300      -0.04689600
C        3.69004000       0.71013000      10.24151000      -0.00093300      -0.04182900      -0.04694800
C        2.46005000       2.84053000      10.23667000       0.18443200       0.10758300      -0.05270700
C        1.23002000       4.97100000      10.24153000      -0.03676500       0.01881400      -0.04669600
C        6.15001000       0.71013000      10.19914000      -0.24530200      -0.14286400      -0.07334900
C        4.92002000       2.84053000      10.23664000      -0.18497900       0.10839100      -0.05286700
C        3.69000000       4.97100000      10.23648000       0.00103300      -0.21509200      -0.05278900
Li      -0.00005000       1.42020000      11.87205000      -0.00009000       0.00002700       0.03364400
37