37
Lattice="7.380000114 0.0 0.0 -3.690000057 6.391267579 0.0 0.0 0.0 24.0" Properties=species:S:1:pos:R:3:forces:R:3 stress="-0.007854539778340025 5.8695151819806163e-05 6.241509125883259e-09 5.8695151819806163e-05 -0.007786725781687302 6.241509125883259e-09 6.241509125883259e-09 6.241509125883259e-09 0.004606664399031531" free_energy=-336.36010235 energy=-336.35797417 pbc="T T T"
C        0.00000000       0.00000000      14.00000000       0.00119300      -0.27550900      -0.04669700
C       -1.22999000       2.13040000      14.00000000      -0.23745500       0.13910400      -0.04746200
C       -2.46001000       4.26087000      14.00000000      -0.03705100      -0.02347200      -0.02737300
C        2.45998000       0.00000000      14.00000000       0.03179300      -0.01758200      -0.00419300
C        1.22999000       2.13040000      14.00000000       0.23953200       0.13930600      -0.04746200
C       -0.00004000       4.26087000      14.00000000       0.00151400       0.03376800      -0.00429800
C        4.92002000       0.00000000      14.00000000      -0.03115900      -0.01864200      -0.00419500
C        3.69004000       2.13040000      14.00000000      -0.00121400       0.04479300      -0.02743800
C        2.46001000       4.26087000      14.00000000       0.03731300      -0.02428900      -0.02737200
C        0.00000000       1.42027000      14.00000000      -0.00117200       0.00153500       0.77537200
C       -1.23002000       3.55073000      14.00000000      -0.00578200       0.14365300      -0.02496400
C       -2.46001000       5.68113000      14.00000000       0.12199400      -0.07659200      -0.02459200
C        2.45998000       1.42027000      14.00000000       0.12916600      -0.06579700      -0.02494200
C        1.22995000       3.55073000      14.00000000       0.00603100       0.14444300      -0.02496400
C       -0.00004000       5.68113000      14.00000000       0.00082000       0.00097700      -0.03804100
C        4.92002000       1.42027000      14.00000000      -0.12989500      -0.06679400      -0.02494100
C        3.69000000       3.55073000      14.00000000      -0.00122500      -0.00191700      -0.00735100
C        2.46001000       5.68113000      14.00000000      -0.12471900      -0.07681500      -0.02459000
C        0.00000000       0.00000000      10.00000000      -0.00120200      -0.15430200       0.03649600
C       -1.22999000       2.13040000      10.00000000      -0.13539500       0.07893300       0.03725100
C       -2.46001000       4.26087000      10.00000000      -0.02579800      -0.01622000       0.00936000
C        2.45998000       0.00000000      10.00000000       0.16826700      -0.09515800       0.04761800
C        1.22999000       2.13040000      10.00000000       0.13510000       0.07977000       0.03726600
C       -0.00004000       4.26087000      10.00000000       0.00119900       0.19226500       0.04769000
C        4.92002000       0.00000000      10.00000000      -0.16893900      -0.09621000       0.04762100
C        3.69004000       2.13040000      10.00000000      -0.00151800       0.03000100       0.00946000
C        2.46001000       4.26087000      10.00000000       0.02369200      -0.01642900       0.00935600
C        1.22999000       0.71013000      10.00000000       0.13527900      -0.07724000       0.03800000
C        0.00000000       2.84053000      10.00000000       0.00124600       0.15589000       0.03838800
C       -1.23002000       4.97100000      10.00000000       0.02748000       0.01381400       0.00790300
C        3.69004000       0.71013000      10.00000000      -0.00079700      -0.03067400       0.00792200
C        2.46005000       2.84053000      10.00000000       0.16538000       0.09627700       0.04542000
C        1.23002000       4.97100000      10.00000000      -0.02672500       0.01281400       0.00789900
C        6.15001000       0.71013000      10.00000000      -0.13253800      -0.07745200       0.03802800
C        4.92002000       2.84053000      10.00000000      -0.16562200       0.09707500       0.04541600
C        3.69000000       4.97100000      10.00000000       0.00118600      -0.19333300       0.04504400
Li       0.00000000       1.42027000      12.00000000       0.00002100       0.00000800      -0.90063700
37
Lattice="7.380000114 0.0 0.0 -3.690000057 6.391267579 0.0 0.0 0.0 24.0" Properties=species:S:1:pos:R:3:forces:R:3 stress="-0.007871522924671552 5.871387634718381e-05 3.744905475529955e-08 5.871387634718381e-05 -0.007803683961982328 -1.7476225552473123e-07 3.744905475529955e-08 -1.7476225552473123e-07 0.005060403387955865" free_energy=-336.40498202 energy=-336.40297828 pbc="T T T"
C        0.00000000       0.00000000      13.99775000       0.00117000      -0.25215200       0.17093100
C       -1.22999000       2.13040000      13.99771000      -0.21726300       0.12747600       0.17042200
C       -2.46001000       4.26087000      13.99868000      -0.03293200      -0.02107300      -0.05686100
C        2.45998000       0.00000000      13.99980000       0.03118100      -0.01720800      -0.01066800
C        1.22999000       2.13040000      13.99771000       0.21929800       0.12767800       0.17039300
C       -0.00004000       4.26087000      13.99979000       0.00149500       0.03310300      -0.01078300
C        4.92002000       0.00000000      13.99980000      -0.03058200      -0.01826700      -0.01067300
C        3.69004000       2.13040000      13.99868000      -0.00123200       0.04005000      -0.05698100
C        2.46001000       4.26087000      13.99868000       0.03315800      -0.02189000      -0.05687400
C        0.00000000       1.42027000      14.03741000      -0.00114100       0.00088900      -0.06731200
C       -1.23002000       3.55073000      13.99880000      -0.00488300       0.14549600      -0.04401000
C       -2.46001000       5.68113000      13.99881000       0.12406500      -0.07674300      -0.04359900
C        2.45998000       1.42027000      13.99880000       0.13033900      -0.06747900      -0.04394300
C        1.22995000       3.55073000      13.99880000       0.00516400       0.14628200      -0.04411900
C       -0.00004000       5.68113000      13.99816000       0.00083600       0.00100100      -0.00374200
C        4.92002000       1.42027000      13.99880000      -0.13103200      -0.06847800      -0.04393900
C        3.69000000       3.55073000      13.99965000      -0.00120800      -0.00191300      -0.01856200
C        2.46001000       5.68113000      13.99881000      -0.12675400      -0.07696200      -0.04369700
C        0.00000000       0.00000000      10.00176000      -0.00120800      -0.16444900       0.03156700
C       -1.22999000       2.13040000      10.00180000      -0.14422300       0.08405200       0.03210800
C       -2.46001000       4.26087000      10.00045000      -0.02648400      -0.01660200       0.02823900
C        2.45998000       0.00000000      10.00230000       0.17484900      -0.09892900       0.02930200
C        1.22999000       2.13040000      10.00180000       0.14391500       0.08489100       0.03211300
C       -0.00004000       4.26087000      10.00230000       0.00118900       0.19987400       0.02941000
C        4.92002000       0.00000000      10.00230000      -0.17553400      -0.09997900       0.02930500
C        3.69004000       2.13040000      10.00046000      -0.00152400       0.03081200       0.02834000
C        2.46001000       4.26087000      10.00045000       0.02436500      -0.01681000       0.02823300
C        1.22999000       0.71013000      10.00183000       0.14401200      -0.08222700       0.03276100
C        0.00000000       2.84053000      10.00185000       0.00125300       0.16595900       0.03310100
C       -1.23002000       4.97100000      10.00038000       0.02832000       0.01430400       0.02956500
C        3.69004000       0.71013000      10.00038000      -0.00078900      -0.03162400       0.02963500
C        2.46005000       2.84053000      10.00219000       0.17171400       0.09995900       0.02943300
C        1.23002000       4.97100000      10.00038000      -0.02755100       0.01330400       0.02955900
C        6.15001000       0.71013000      10.00183000      -0.14125900      -0.08243800       0.03277400
C        4.92002000       2.84053000      10.00219000      -0.17193800       0.10075800       0.02943700
C        3.69000000       4.97100000      10.00217000       0.00119400      -0.20068200       0.02901900
Li       0.00000000       1.42027000      11.95655000       0.00001800       0.00001700      -0.49988300
37
Lattice="7.380000114 0.0 0.0 -3.690000057 6.391267579 0.0 0.0 0.0 24.0" Properties=species:S:1:pos:R:3:forces:R:3 stress="-0.007885235520221119 5.877629143844265e-05 6.241509125883259e-09 5.877629143844265e-05 -0.007817421523568395 -1.373132007694317e-07 6.241509125883259e-09 -1.373132007694317e-07 0.005113412524961992" free_energy=-336.41977946 energy=-336.41790786 pbc="T T T"
C        0.00000000       0.00000000      14.00617000       0.00115700      -0.25825800       0.02362900
C       -1.22999000       2.13040000      14.00611000      -0.22252800       0.13045600       0.02322500
C       -2.46001000       4.26087000      13.99588000      -0.03438300      -0.02190800      -0.05463700
C        2.45998000       0.00000000      13.99927000       0.03046400      -0.01678600      -0.03378800
C        1.22999000       2.13040000      14.00611000       0.22454100       0.13066100       0.02317100
C       -0.00004000       4.26087000      13.99926000       0.00148000       0.03229800      -0.03401200
C        4.92002000       0.00000000      13.99927000      -0.02989400      -0.01784500      -0.03386800
C        3.69004000       2.13040000      13.99587000      -0.00124300       0.04173200      -0.05474800
C        2.46001000       4.26087000      13.99588000       0.03458200      -0.02272500      -0.05475800
C        0.00000000       1.42027000      14.03409000      -0.00113100       0.00090800       0.05089200
C       -1.23002000       3.55073000      13.99663000      -0.00550900       0.13874200       0.01223000
C       -2.46001000       5.68113000      13.99666000       0.11795700      -0.07393200       0.01258500
C        2.45998000       1.42027000      13.99663000       0.12483200      -0.06356500       0.01230700
C        1.22995000       3.55073000      13.99662000       0.00581400       0.13952900       0.01217600
C       -0.00004000       5.68113000      13.99798000       0.00084900       0.00100200      -0.03243200
C        4.92002000       1.42027000      13.99663000      -0.12549600      -0.06456400       0.01230400
C        3.69000000       3.55073000      13.99873000      -0.00119400      -0.00192100      -0.04515300
C        2.46001000       5.68113000      13.99666000      -0.12061700      -0.07415000       0.01253000
C        0.00000000       0.00000000      10.00332000      -0.00121000      -0.17134100       0.02554600
C       -1.22999000       2.13040000      10.00338000      -0.15021400       0.08752000       0.02597400
C       -2.46001000       4.26087000      10.00184000      -0.02701200      -0.01691500       0.02979200
C        2.45998000       0.00000000      10.00374000       0.17877800      -0.10118400       0.03224000
C        1.22999000       2.13040000      10.00338000       0.14990300       0.08836000       0.02597100
C       -0.00004000       4.26087000      10.00375000       0.00118600       0.20440900       0.03236400
C        4.92002000       0.00000000      10.00374000      -0.17946500      -0.10223400       0.03224300
C        3.69004000       2.13040000      10.00185000      -0.00152400       0.03143200       0.02992100
C        2.46001000       4.26087000      10.00184000       0.02489000      -0.01712300       0.02978600
C        1.22999000       0.71013000      10.00345000       0.14993200      -0.08560600       0.02566000
C        0.00000000       2.84053000      10.00348000       0.00125400       0.17277900       0.02592400
C       -1.23002000       4.97100000      10.00184000       0.02886700       0.01461400       0.03017600
C        3.69004000       0.71013000      10.00184000      -0.00078600      -0.03225200       0.03024800
C        2.46005000       2.84053000      10.00364000       0.17554000       0.10218500       0.03155100
C        1.23002000       4.97100000      10.00184000      -0.02809500       0.01361500       0.03017100
C        6.15001000       0.71013000      10.00345000      -0.14717700      -0.08581700       0.02566500
C        4.92002000       2.84053000      10.00364000      -0.17575800       0.10298400       0.03155200
C        3.69000000       4.97100000      10.00360000       0.00119500      -0.20513000       0.03118000
Li       0.00000000       1.42027000      11.93191000       0.00001700       0.00003500      -0.37761900
37
Lattice="7.380000114 0.0 0.0 -3.690000057 6.391267579 0.0 0.0 0.0 24.0" Properties=species:S:1:pos:R:3:forces:R:3 stress="-0.008077411586207063 5.890112162096031e-05 -6.241509125883259e-09 5.890112162096031e-05 -0.008009610072572594 -6.241509125883259e-08 -6.241509125883259e-09 -6.241509125883259e-08 0.005051253335577321" free_energy=-336.4330677 energy=-336.43150598 pbc="T T T"
C        0.00000000       0.00000000      14.01062000       0.00112600      -0.25718500      -0.02136600
C       -1.22999000       2.13040000      14.01051000      -0.22160100       0.12989000      -0.02157700
C       -2.46001000       4.26087000      13.99048000      -0.03397500      -0.02165400       0.01315200
C        2.45998000       0.00000000      13.99629000       0.02956300      -0.01625900       0.00084500
C        1.22999000       2.13040000      14.01051000       0.22355900       0.13009900      -0.02161900
C       -0.00004000       4.26087000      13.99625000       0.00144600       0.03128700       0.00064100
C        4.92002000       0.00000000      13.99628000      -0.02904800      -0.01731600       0.00076600
C        3.69004000       2.13040000      13.99046000      -0.00127100       0.04125700       0.01304200
C        2.46001000       4.26087000      13.99047000       0.03411700      -0.02247300       0.01303100
C        0.00000000       1.42027000      14.03739000      -0.00110200       0.00089100      -0.01869300
C       -1.23002000       3.55073000      13.99702000      -0.00607000       0.13263400      -0.01047700
C       -2.46001000       5.68113000      13.99709000       0.11239000      -0.07140900      -0.01014500
C        2.45998000       1.42027000      13.99703000       0.11988200      -0.06001600      -0.01041200
C        1.22995000       3.55073000      13.99701000       0.00643200       0.13342000      -0.01059200
C       -0.00004000       5.68113000      13.99521000       0.00087200       0.00101600      -0.07047300
C        4.92002000       1.42027000      13.99703000      -0.12048600      -0.06101500      -0.01041300
C        3.69000000       3.55073000      13.99468000      -0.00116800      -0.00195500      -0.08147400
C        2.46001000       5.68113000      13.99708000      -0.11499300      -0.07162500      -0.01026100
C        0.00000000       0.00000000      10.00591000      -0.00120800      -0.18335200       0.01822600
C       -1.22999000       2.13040000      10.00602000      -0.16064000       0.09354800       0.01847000
C       -2.46001000       4.26087000      10.00475000      -0.02767800      -0.01732400       0.03836200
C        2.45998000       0.00000000      10.00687000       0.18468300      -0.10458000       0.01635700
C        1.22999000       2.13040000      10.00602000       0.16033300       0.09438800       0.01846500
C       -0.00004000       4.26087000      10.00689000       0.00118400       0.21121400       0.01646900
C        4.92002000       0.00000000      10.00687000      -0.18536600      -0.10562900       0.01635900
C        3.69004000       2.13040000      10.00477000      -0.00151800       0.03221100       0.03850700
C        2.46001000       4.26087000      10.00475000       0.02555900      -0.01753200       0.03836000
C        1.22999000       0.71013000      10.00607000       0.16027300      -0.09152900       0.01870600
C        0.00000000       2.84053000      10.00613000       0.00125100       0.18470100       0.01886800
C       -1.23002000       4.97100000      10.00479000       0.02956000       0.01500300       0.03913000
C        3.69004000       0.71013000      10.00481000      -0.00078400      -0.03306700       0.03921400
C        2.46005000       2.84053000      10.00671000       0.18130800       0.10554700       0.01619500
C        1.23002000       4.97100000      10.00479000      -0.02879300       0.01400400       0.03913100
C        6.15001000       0.71013000      10.00607000      -0.15752400      -0.09173900       0.01870800
C        4.92002000       2.84053000      10.00671000      -0.18152400       0.10634700       0.01619700
C        3.69000000       4.97100000      10.00664000       0.00119300      -0.21186500       0.01592500
Li       0.00000000       1.42027000      11.89304000       0.00001700       0.00006600      -0.18562100
37
Lattice="7.380000114 0.0 0.0 -3.690000057 6.391267579 0.0 0.0 0.0 24.0" Properties=species:S:1:pos:R:3:forces:R:3 stress="-0.00828329400623345 5.897601973047091e-05 -6.241509125883259e-09 5.897601973047091e-05 -0.008215442560525971 2.4966036503533037e-08 -6.241509125883259e-09 2.4966036503533037e-08 0.004889567041671315" free_energy=-336.43662576 energy=-336.43522302 pbc="T T T"
C        0.00000000       0.00000000      14.01088000       0.00111000      -0.25738200      -0.02682000
C       -1.22999000       2.13040000      14.01076000      -0.22178000       0.12999400      -0.02705000
C       -2.46001000       4.26087000      13.99004000      -0.03364200      -0.02144500      -0.01415500
C        2.45998000       0.00000000      13.99579000       0.02925700      -0.01608100      -0.01554200
C        1.22999000       2.13040000      14.01075000       0.22370900       0.13020500      -0.02709100
C       -0.00004000       4.26087000      13.99574000       0.00143100       0.03095400      -0.01576900
C        4.92002000       0.00000000      13.99577000      -0.02877000      -0.01713700      -0.01562200
C        3.69004000       2.13040000      13.99001000      -0.00128700       0.04086400      -0.01430900
C        2.46001000       4.26087000      13.99002000       0.03375700      -0.02226400      -0.01428100
C        0.00000000       1.42027000      14.03674000      -0.00108900       0.00089300      -0.04386100
C       -1.23002000       3.55073000      13.99639000      -0.00626500       0.13013700       0.00370000
C       -2.46001000       5.68113000      13.99649000       0.11015600      -0.07035800       0.00395100
C        2.45998000       1.42027000      13.99640000       0.11785100      -0.05860200       0.00376000
C        1.22995000       3.55073000      13.99637000       0.00665400       0.13092200       0.00358300
C       -0.00004000       5.68113000      13.99111000       0.00088300       0.00104900      -0.00605800
C        4.92002000       1.42027000      13.99640000      -0.11842500      -0.05960100       0.00375700
C        3.69000000       3.55073000      13.98974000      -0.00115400      -0.00198500      -0.00304200
C        2.46001000       5.68113000      13.99647000      -0.11273000      -0.07057200       0.00383000
C        0.00000000       0.00000000      10.00740000      -0.00120800      -0.18925000      -0.00391000
C       -1.22999000       2.13040000      10.00753000      -0.16576200       0.09650500      -0.00372500
C       -2.46001000       4.26087000      10.00731000      -0.02805400      -0.01755400       0.01506000
C        2.45998000       0.00000000      10.00834000       0.18732400      -0.10609700       0.03846400
C        1.22999000       2.13040000      10.00753000       0.16545900       0.09734800      -0.00373200
C       -0.00004000       4.26087000      10.00837000       0.00118500       0.21425700       0.03856800
C        4.92002000       0.00000000      10.00834000      -0.18800300      -0.10714600       0.03847000
C        3.69004000       2.13040000      10.00734000      -0.00151400       0.03264700       0.01520200
C        2.46001000       4.26087000      10.00731000       0.02593800      -0.01776100       0.01506400
C        1.22999000       0.71013000      10.00759000       0.16536500      -0.09444300      -0.00364000
C        0.00000000       2.84053000      10.00767000       0.00125000       0.19057300      -0.00351800
C       -1.23002000       4.97100000      10.00741000       0.02996800       0.01522800       0.01550200
C        3.69004000       0.71013000      10.00743000      -0.00078300      -0.03355100       0.01558600
C        2.46005000       2.84053000      10.00817000       0.18387300       0.10704200       0.03798300
C        1.23002000       4.97100000      10.00741000      -0.02920500       0.01422900       0.01550600
C        6.15001000       0.71013000      10.00759000      -0.16262000      -0.09465400      -0.00364100
C        4.92002000       2.84053000      10.00817000      -0.18409100       0.10784200       0.03797800
C        3.69000000       4.97100000      10.00807000       0.00119100      -0.21486100       0.03776800
Li       0.00000000       1.42028000      11.87517000       0.00001700       0.00005300      -0.09796600
37
Lattice="7.380000114 0.0 0.0 -3.690000057 6.391267579 0.0 0.0 0.0 24.0" Properties=species:S:1:pos:R:3:forces:R:3 stress="-0.008300139839364208 5.903843482172974e-05 -0.0 5.903843482172974e-05 -0.008232300876674982 8.738112776236562e-08 -0.0 8.738112776236562e-08 0.004872671276467549" free_energy=-336.43878656 energy=-336.437496 pbc="T T T"
C        0.00000000       0.00000000      14.00981000       0.00110000      -0.25755100      -0.02700100
C       -1.22999000       2.13040000      14.00966000      -0.22193700       0.13009200      -0.02725300
C       -2.46001000       4.26087000      13.98878000      -0.03328800      -0.02122800      -0.00952800
C        2.45998000       0.00000000      13.99457000       0.02880400      -0.01581800      -0.01067200
C        1.22999000       2.13040000      14.00965000       0.22384700       0.13030400      -0.02729100
C       -0.00004000       4.26087000      13.99451000       0.00141900       0.03044300      -0.01088400
C        4.92002000       0.00000000      13.99455000      -0.02833700      -0.01687300      -0.01075200
C        3.69004000       2.13040000      13.98874000      -0.00130000       0.04044900      -0.00967000
C        2.46001000       4.26087000      13.98875000       0.03338400      -0.02204800      -0.00965300
C        0.00000000       1.42027000      14.03400000      -0.00108000       0.00090900      -0.05959200
C       -1.23002000       3.55073000      13.99631000      -0.00656200       0.12852700      -0.01196200
C       -2.46001000       5.68113000      13.99644000       0.10862100      -0.06983100      -0.01175100
C        2.45998000       1.42027000      13.99634000       0.11663100      -0.05753700      -0.01192000
C        1.22995000       3.55073000      13.99629000       0.00697200       0.12931200      -0.01206300
C       -0.00004000       5.68113000      13.98904000       0.00089600       0.00106200      -0.00392300
C        4.92002000       1.42027000      13.99634000      -0.11718200      -0.05853700      -0.01192100
C        3.69000000       3.55073000      13.98745000      -0.00114400      -0.00199700       0.00163300
C        2.46001000       5.68113000      13.99641000      -0.11117300      -0.07004400      -0.01185400
C        0.00000000       0.00000000      10.00789000      -0.00120700      -0.19459600      -0.00414300
C       -1.22999000       2.13040000      10.00804000      -0.17040100       0.09918400      -0.00400300
C       -2.46001000       4.26087000      10.00933000      -0.02829600      -0.01770700       0.02987500
C        2.45998000       0.00000000      10.01129000       0.18954400      -0.10736900       0.02553800
C        1.22999000       2.13040000      10.00804000       0.17010100       0.10002800      -0.00399600
C       -0.00004000       4.26087000      10.01132000       0.00119200       0.21680700       0.02560100
C        4.92002000       0.00000000      10.01129000      -0.19021900      -0.10841700       0.02554500
C        3.69004000       2.13040000      10.00937000      -0.00151400       0.03293300       0.03002300
C        2.46001000       4.26087000      10.00933000       0.02618200      -0.01791400       0.02989100
C        1.22999000       0.71013000      10.00812000       0.16994500      -0.09707900      -0.00399500
C        0.00000000       2.84053000      10.00821000       0.00124900       0.19586400      -0.00388100
C       -1.23002000       4.97100000      10.00948000       0.03022000       0.01536300       0.03028800
C        3.69004000       0.71013000      10.00950000      -0.00078600      -0.03384800       0.03035200
C        2.46005000       2.84053000      10.01108000       0.18600400       0.10830800       0.02508100
C        1.23002000       4.97100000      10.00948000      -0.02945900       0.01436400       0.03030500
C        6.15001000       0.71013000      10.00812000      -0.16720200      -0.09729000      -0.00398500
C        4.92002000       2.84053000      10.01108000      -0.18623400       0.10910900       0.02508000
C        3.69000000       4.97100000      10.01096000       0.00119100      -0.21739300       0.02498300
Li       0.00001000       1.42028000      11.86044000       0.00001700       0.00001800      -0.03250600
37
Lattice="7.380000114 0.0 0.0 -3.690000057 6.391267579 0.0 0.0 0.0 24.0" Properties=species:S:1:pos:R:3:forces:R:3 stress="-0.008303635084474703 5.904467633085563e-05 6.241509125883259e-09 5.904467633085563e-05 -0.008235802363294601 8.738112776236562e-08 6.241509125883259e-09 8.738112776236562e-08 0.004847443096580729" free_energy=-336.43952455 energy=-336.43824262 pbc="T T T"
C        0.00000000       0.00000000      14.00875000       0.00109900      -0.25834900      -0.03256100
C       -1.22999000       2.13040000      14.00859000      -0.22263100       0.13050100      -0.03281900
C       -2.46001000       4.26087000      13.98832000      -0.03325600      -0.02120900      -0.00556900
C        2.45998000       0.00000000      13.99409000       0.02867600      -0.01574300      -0.01096400
C        1.22999000       2.13040000      14.00858000       0.22453900       0.13071400      -0.03285400
C       -0.00004000       4.26087000      13.99402000       0.00141700       0.03029300      -0.01114900
C        4.92002000       0.00000000      13.99407000      -0.02820900      -0.01679800      -0.01103600
C        3.69004000       2.13040000      13.98827000      -0.00130100       0.04041200      -0.00568900
C        2.46001000       4.26087000      13.98828000       0.03335100      -0.02203000      -0.00568100
C        0.00000000       1.42027000      14.03154000      -0.00108100       0.00093100      -0.03347500
C       -1.23002000       3.55073000      13.99583000      -0.00667000       0.12849000      -0.01607500
C       -2.46001000       5.68113000      13.99596000       0.10854800      -0.06991000      -0.01585000
C        2.45998000       1.42027000      13.99585000       0.11665900      -0.05742900      -0.01602800
C        1.22995000       3.55073000      13.99579000       0.00708200       0.12927600      -0.01616900
C       -0.00004000       5.68113000      13.98890000       0.00089700       0.00106400      -0.00833500
C        4.92002000       1.42027000      13.99585000      -0.11720700      -0.05842700      -0.01602900
C        3.69000000       3.55073000      13.98754000      -0.00114300      -0.00199700      -0.00770500
C        2.46001000       5.68113000      13.99593000      -0.11109700      -0.07012300      -0.01594600
C        0.00000000       0.00000000      10.00773000      -0.00120600      -0.19478500      -0.00241800
C       -1.22999000       2.13040000      10.00789000      -0.17056400       0.09927800      -0.00228600
C       -2.46001000       4.26087000      10.01057000      -0.02830300      -0.01771700       0.03135900
C        2.45998000       0.00000000      10.01238000       0.18956500      -0.10737800       0.02521900
C        1.22999000       2.13040000      10.00789000       0.17026400       0.10012200      -0.00228100
C       -0.00004000       4.26087000      10.01242000       0.00119400       0.21682900       0.02528500
C        4.92002000       0.00000000      10.01238000      -0.19023900      -0.10842600       0.02523500
C        3.69004000       2.13040000      10.01062000      -0.00151700       0.03294600       0.03146800
C        2.46001000       4.26087000      10.01057000       0.02619000      -0.01792400       0.03138200
C        1.22999000       0.71013000      10.00796000       0.17008600      -0.09716300      -0.00224000
C        0.00000000       2.84053000      10.00806000       0.00124900       0.19602800      -0.00212900
C       -1.23002000       4.97100000      10.01074000       0.03023100       0.01536200       0.03181200
C        3.69004000       0.71013000      10.01077000      -0.00078800      -0.03386100       0.03188200
C        2.46005000       2.84053000      10.01215000       0.18600400       0.10832000       0.02485500
C        1.23002000       4.97100000      10.01074000      -0.02946900       0.01436300       0.03183600
C        6.15001000       0.71013000      10.00797000      -0.16734300      -0.09737400      -0.00223300
C        4.92002000       2.84053000      10.01215000      -0.18623700       0.10912000       0.02484400
C        3.69000000       4.97100000      10.01203000       0.00119100      -0.21741600       0.02474800
Li       0.00001000       1.42028000      11.85881000       0.00001800       0.00001100      -0.03240500
37