37
Lattice="7.380000114 0.0 0.0 -3.690000057 6.391267579 0.0 0.0 0.0 24.0" Properties=species:S:1:pos:R:3:forces:R:3 stress="-0.007565376902046978 5.894481218484149e-05 3.1207545629416294e-08 5.894481218484149e-05 -0.007497344452574851 -2.4966036503533037e-08 3.1207545629416294e-08 -2.4966036503533037e-08 -7.751954334347007e-05" free_energy=-336.14942638 energy=-336.14792261 pbc="T T T"
C        0.00000000       0.00000000      13.80000000       0.00115100      -0.29624300       0.06519400
C       -1.22999000       2.13040000      13.80000000      -0.25543300       0.14936400       0.06521100
C       -2.46001000       4.26087000      13.80000000      -0.03874000      -0.02425800      -0.01051600
C        2.45998000       0.00000000      13.80000000       0.03416400      -0.01898200       0.01179700
C        1.22999000       2.13040000      13.80000000       0.25743500       0.14957400       0.06520200
C       -0.00004000       4.26087000      13.80000000       0.00147800       0.03671500       0.01179800
C        4.92002000       0.00000000      13.80000000      -0.03360700      -0.02004600       0.01179700
C        3.69004000       2.13040000      13.80000000      -0.00125500       0.04660100      -0.01050900
C        2.46001000       4.26087000      13.80000000       0.03892100      -0.02507900      -0.01051700
C        0.00000000       1.42027000      13.80000000      -0.00113100       0.00080900       2.20219000
C       -1.23002000       3.55073000      13.80000000       0.00131500       0.14878400       0.00127000
C       -2.46001000       5.68113000      13.80000000       0.12963800      -0.07262300       0.00127400
C        2.45998000       1.42027000      13.80000000       0.12996200      -0.07485100       0.00127700
C        1.22995000       3.55073000      13.80000000      -0.00098300       0.14956600       0.00127000
C       -0.00004000       5.68113000      13.80000000       0.00085700       0.00118900      -0.01522900
C        4.92002000       1.42027000      13.80000000      -0.13061700      -0.07585200       0.00127700
C        3.69000000       3.55073000      13.80000000      -0.00119200      -0.00173500       0.01461200
C        2.46001000       5.68113000      13.80000000      -0.13228600      -0.07284500       0.00127500
C        0.00000000       0.00000000      10.20000000      -0.00117400      -0.20612500      -0.08652700
C       -1.22999000       2.13040000      10.20000000      -0.18013100       0.10473600      -0.08656000
C       -2.46001000       4.26087000      10.20000000      -0.03241400      -0.01992200      -0.00529900
C        2.45998000       0.00000000      10.20000000       0.18061100      -0.10240600       0.03499700
C        1.22999000       2.13040000      10.20000000       0.17989400       0.10558100      -0.08654700
C       -0.00004000       4.26087000      10.20000000       0.00122700       0.20661700       0.03500200
C        4.92002000       0.00000000      10.20000000      -0.18123200      -0.10345800       0.03500200
C        3.69004000       2.13040000      10.20000000      -0.00149200       0.03762100      -0.00530600
C        2.46001000       4.26087000      10.20000000       0.03035800      -0.02013700      -0.00530300
C        1.22999000       0.71013000      10.20000000       0.17832400      -0.10277800      -0.08433700
C        0.00000000       2.84053000      10.20000000       0.00122700       0.20613500      -0.08432700
C       -1.23002000       4.97100000      10.20000000       0.03542600       0.01863600      -0.01156500
C        3.69004000       0.71013000      10.20000000      -0.00082000      -0.04031100      -0.01156700
C        2.46005000       2.84053000      10.20000000       0.17562800       0.10246600       0.02799100
C        1.23002000       4.97100000      10.20000000      -0.03472000       0.01763400      -0.01156800
C        6.15001000       0.71013000      10.20000000      -0.17563700      -0.10299700      -0.08430800
C        4.92002000       2.84053000      10.20000000      -0.17593100       0.10326000       0.02798200
C        3.69000000       4.97100000      10.20000000       0.00115800      -0.20475100       0.02799100
Li       0.00000000       1.42027000      12.00000000       0.00002000       0.00010800      -2.03442400
37
Lattice="7.380000114 0.0 0.0 -3.690000057 6.391267579 0.0 0.0 0.0 24.0" Properties=species:S:1:pos:R:3:forces:R:3 stress="-0.007616114129731284 5.885118954795324e-05 1.0610565514001541e-07 5.885118954795324e-05 -0.007548162819877792 1.5603772814708145e-07 1.0610565514001541e-07 1.5603772814708145e-07 0.0018701059303336454" free_energy=-336.33365479 energy=-336.33239508 pbc="T T T"
C        0.00000000       0.00000000      13.80315000       0.00109100      -0.20512600       0.58293900
C       -1.22999000       2.13040000      13.80315000      -0.17661000       0.10385400       0.58308900
C       -2.46001000       4.26087000      13.79949000      -0.02874100      -0.01843600      -0.09528600
C        2.45998000       0.00000000      13.80057000       0.03251700      -0.01802900       0.03414900
C        1.22999000       2.13040000      13.80315000       0.17848300       0.10405300       0.58299200
C       -0.00004000       4.26087000      13.80057000       0.00143700       0.03487800       0.03412700
C        4.92002000       0.00000000      13.80057000      -0.03203500      -0.01909000       0.03412300
C        3.69004000       2.13040000      13.79949000      -0.00129500       0.03503500      -0.09528600
C        2.46001000       4.26087000      13.79949000       0.02883400      -0.01925200      -0.09535900
C        0.00000000       1.42027000      13.90624000      -0.00103400       0.00087400      -0.52479300
C       -1.23002000       3.55073000      13.80006000      -0.00139000       0.15008100      -0.02585700
C       -2.46001000       5.68113000      13.80006000       0.12944700      -0.07567000      -0.02589200
C        2.45998000       1.42027000      13.80006000       0.13251000      -0.07316600      -0.02587900
C        1.22995000       3.55073000      13.80006000       0.00178700       0.15083800      -0.02615600
C       -0.00004000       5.68113000      13.79927000       0.00089600       0.00117200       0.01463000
C        4.92002000       1.42027000      13.80006000      -0.13308900      -0.07416200      -0.02588100
C        3.69000000       3.55073000      13.80070000      -0.00115300      -0.00175500       0.01756900
C        2.46001000       5.68113000      13.80006000      -0.13199900      -0.07587200      -0.02616200
C        0.00000000       0.00000000      10.19583000      -0.00119000      -0.25429900      -0.13693100
C       -1.22999000       2.13040000      10.19582000      -0.22186500       0.12882400      -0.13702500
C       -2.46001000       4.26087000      10.19974000      -0.03323700      -0.02037600       0.01342000
C        2.45998000       0.00000000      10.20169000       0.19509700      -0.11076700      -0.00423100
C        1.22999000       2.13040000      10.19582000       0.22159700       0.12967200      -0.13700400
C       -0.00004000       4.26087000      10.20169000       0.00120900       0.22337900      -0.00419500
C        4.92002000       0.00000000      10.20169000      -0.19574700      -0.11181600      -0.00420700
C        3.69004000       2.13040000      10.19974000      -0.00150800       0.03856700       0.01341300
C        2.46001000       4.26087000      10.19974000       0.03114900      -0.02059000       0.01344800
C        1.22999000       0.71013000      10.19593000       0.21937300      -0.12646700      -0.13332400
C        0.00000000       2.84053000      10.19593000       0.00124600       0.25348000      -0.13336100
C       -1.23002000       4.97100000      10.19944000       0.03670600       0.01935700       0.01762700
C        3.69004000       0.71013000      10.19944000      -0.00080000      -0.04177300       0.01763300
C        2.46005000       2.84053000      10.20135000       0.18907200       0.11020700      -0.00192000
C        1.23002000       4.97100000      10.19944000      -0.03596000       0.01835400       0.01765200
C        6.15001000       0.71013000      10.19593000      -0.21665400      -0.12668500      -0.13330300
C        4.92002000       2.84053000      10.20135000      -0.18933600       0.11100200      -0.00193200
C        3.69000000       4.97100000      10.20135000       0.00117700      -0.22025200      -0.00190700
Li       0.00000000       1.42027000      11.90185000       0.00001600      -0.00004100      -0.18091700
37
Lattice="7.380000114 0.0 0.0 -3.690000057 6.391267579 0.0 0.0 0.0 24.0" Properties=species:S:1:pos:R:3:forces:R:3 stress="-0.0077622528244047145 5.89073631300862e-05 3.1207545629416294e-08 5.89073631300862e-05 -0.007693951990040175 9.362263688824886e-08 3.1207545629416294e-08 9.362263688824886e-08 0.0016588620539681263" free_energy=-336.36784055 energy=-336.36659311 pbc="T T T"
C        0.00000000       0.00000000      13.82629000       0.00109200      -0.25651800       0.13708800
C       -1.22999000       2.13040000      13.82630000      -0.22105300       0.12950800       0.13774700
C       -2.46001000       4.26087000      13.79571000      -0.03551400      -0.02234000      -0.05702500
C        2.45998000       0.00000000      13.80192000       0.03230100      -0.01791900      -0.01333100
C        1.22999000       2.13040000      13.82629000       0.22294800       0.12972000       0.13760100
C       -0.00004000       4.26087000      13.80192000       0.00143000       0.03463000      -0.01348700
C        4.92002000       0.00000000      13.80192000      -0.03182700      -0.01897800      -0.01352400
C        3.69004000       2.13040000      13.79571000      -0.00129500       0.04283000      -0.05706600
C        2.46001000       4.26087000      13.79571000       0.03560200      -0.02315800      -0.05732200
C        0.00000000       1.42027000      13.88540000      -0.00105800       0.00130800       0.18859900
C       -1.23002000       3.55073000      13.79903000       0.00082300       0.13560300       0.10379700
C       -2.46001000       5.68113000      13.79903000       0.11803200      -0.06654100       0.10375900
C        2.45998000       1.42027000      13.79903000       0.11888800      -0.06785900       0.10374700
C        1.22995000       3.55073000      13.79902000      -0.00041400       0.13636700       0.10363700
C       -0.00004000       5.68113000      13.79985000       0.00090000       0.00115900      -0.03799800
C        4.92002000       1.42027000      13.79903000      -0.11945300      -0.06885500       0.10374800
C        3.69000000       3.55073000      13.80140000      -0.00115100      -0.00176500      -0.04381500
C        2.46001000       5.68113000      13.79902000      -0.12057600      -0.06674800       0.10360900
C        0.00000000       0.00000000      10.19039000      -0.00119300      -0.25609100      -0.11335400
C       -1.22999000       2.13040000      10.19038000      -0.22339800       0.12967600      -0.11354800
C       -2.46001000       4.26087000      10.20028000      -0.03309000      -0.02029600       0.01059900
C        2.45998000       0.00000000      10.20152000       0.19584800      -0.11121000      -0.01384600
C        1.22999000       2.13040000      10.19039000       0.22312400       0.13052600      -0.11352300
C       -0.00004000       4.26087000      10.20152000       0.00120600       0.22424000      -0.01381300
C        4.92002000       0.00000000      10.20152000      -0.19650400      -0.11225900      -0.01379700
C        3.69004000       2.13040000      10.20028000      -0.00151100       0.03838500       0.01060600
C        2.46001000       4.26087000      10.20028000       0.03099500      -0.02051100       0.01065900
C        1.22999000       0.71013000      10.19064000       0.22079600      -0.12725400      -0.11443000
C        0.00000000       2.84053000      10.19064000       0.00124600       0.25503800      -0.11451900
C       -1.23002000       4.97100000      10.20014000       0.03644700       0.01919600       0.01112700
C        3.69004000       0.71013000      10.20014000      -0.00079900      -0.04148400       0.01110900
C        2.46005000       2.84053000      10.20127000       0.18963800       0.11052300      -0.01475900
C        1.23002000       4.97100000      10.20014000      -0.03569900       0.01819300       0.01118800
C        6.15001000       0.71013000      10.19064000      -0.21807700      -0.12747200      -0.11440900
C        4.92002000       2.84053000      10.20127000      -0.18990000       0.11131900      -0.01479700
C        3.69000000       4.97100000      10.20127000       0.00117800      -0.22091600      -0.01472900
Li       0.00000000       1.42027000      11.89467000       0.00001500      -0.00004900      -0.22553000
37
Lattice="7.380000114 0.0 0.0 -3.690000057 6.391267579 0.0 0.0 0.0 24.0" Properties=species:S:1:pos:R:3:forces:R:3 stress="-0.007754681873835018 5.887615558445677e-05 3.744905475529955e-08 5.887615558445677e-05 -0.007686118896087189 6.865660038471585e-08 3.744905475529955e-08 6.865660038471585e-08 0.0018605252138254144" free_energy=-336.38239991 energy=-336.38116447 pbc="T T T"
C        0.00000000       0.00000000      13.83645000       0.00108000      -0.25857500       0.05813500
C       -1.22999000       2.13040000      13.83649000      -0.22290600       0.13065300       0.05858800
C       -2.46001000       4.26087000      13.79199000      -0.03564300      -0.02239300       0.05046000
C        2.45998000       0.00000000      13.80125000       0.03165200      -0.01754700       0.05378800
C        1.22999000       2.13040000      13.83648000       0.22478500       0.13087000       0.05847000
C       -0.00004000       4.26087000      13.80124000       0.00142400       0.03387600       0.05362200
C        4.92002000       0.00000000      13.80124000      -0.03118200      -0.01860100       0.05360700
C        3.69004000       2.13040000      13.79199000      -0.00129400       0.04296600       0.05037300
C        2.46001000       4.26087000      13.79197000       0.03572200      -0.02320800       0.05018300
C        0.00000000       1.42027000      13.89478000      -0.00104600       0.00108100       0.12932200
C       -1.23002000       3.55073000      13.80511000      -0.00020600       0.13191300       0.05737200
C       -2.46001000       5.68113000      13.80510000       0.11435400      -0.06563200       0.05711500
C        2.45998000       1.42027000      13.80510000       0.11620400      -0.06512100       0.05736400
C        1.22995000       3.55073000      13.80508000       0.00061400       0.13267200       0.05710000
C       -0.00004000       5.68113000      13.79764000       0.00089900       0.00114800      -0.06891400
C        4.92002000       1.42027000      13.80510000      -0.11675400      -0.06611400       0.05737800
C        3.69000000       3.55073000      13.79886000      -0.00114900      -0.00177100      -0.08078700
C        2.46001000       5.68113000      13.80508000      -0.11687900      -0.06583400       0.05686300
C        0.00000000       0.00000000      10.18319000      -0.00119500      -0.26212900      -0.11311000
C       -1.22999000       2.13040000      10.18317000      -0.22861300       0.13266400      -0.11332300
C       -2.46001000       4.26087000      10.20095000      -0.03300600      -0.02024600       0.00451700
C        2.45998000       0.00000000      10.20068000       0.19645700      -0.11156300      -0.01453800
C        1.22999000       2.13040000      10.18317000       0.22833800       0.13351400      -0.11328900
C       -0.00004000       4.26087000      10.20069000       0.00120600       0.22493500      -0.01452000
C        4.92002000       0.00000000      10.20069000      -0.19711400      -0.11261200      -0.01446400
C        3.69004000       2.13040000      10.20095000      -0.00151300       0.03828400       0.00452600
C        2.46001000       4.26087000      10.20096000       0.03090900      -0.02046200       0.00461600
C        1.22999000       0.71013000      10.18338000       0.22610400      -0.13019500      -0.11335700
C        0.00000000       2.84053000      10.18338000       0.00124700       0.26104200      -0.11350300
C       -1.23002000       4.97100000      10.20086000       0.03626900       0.01909000       0.00525400
C        3.69004000       0.71013000      10.20086000      -0.00079700      -0.04128000       0.00522700
C        2.46005000       2.84053000      10.20039000       0.19030200       0.11090300      -0.01482300
C        1.23002000       4.97100000      10.20087000      -0.03551700       0.01808600       0.00535700
C        6.15001000       0.71013000      10.18339000      -0.22338500      -0.13041300      -0.11333000
C        4.92002000       2.84053000      10.20039000      -0.19056100       0.11170000      -0.01489000
C        3.69000000       4.97100000      10.20039000       0.00118000      -0.22169200      -0.01474600
Li       0.00000000       1.42027000      11.88066000       0.00001300      -0.00001200      -0.07164400
37
Lattice="7.380000114 0.0 0.0 -3.690000057 6.391267579 0.0 0.0 0.0 24.0" Properties=species:S:1:pos:R:3:forces:R:3 stress="-0.007786482362831393 5.8863672566205015e-05 5.617358213294932e-08 5.8863672566205015e-05 -0.007717794554901048 1.185886733917819e-07 5.617358213294932e-08 1.185886733917819e-07 0.001953792084693488" free_energy=-336.38995458 energy=-336.38871954 pbc="T T T"
C        0.00000000       0.00000000      13.84070000       0.00107100      -0.25675600       0.07197300
C       -1.22999000       2.13040000      13.84077000      -0.22136800       0.12979900       0.07235500
C       -2.46001000       4.26087000      13.79413000      -0.03555000      -0.02235800       0.00356300
C        2.45998000       0.00000000      13.80391000       0.03215800      -0.01784800       0.03685800
C        1.22999000       2.13040000      13.84075000       0.22323900       0.13002100       0.07223700
C       -0.00004000       4.26087000      13.80389000       0.00141900       0.03446300       0.03676000
C        4.92002000       0.00000000      13.80388000      -0.03168500      -0.01889900       0.03667600
C        3.69004000       2.13040000      13.79413000      -0.00129500       0.04286100       0.00363600
C        2.46001000       4.26087000      13.79410000       0.03562600      -0.02317200       0.00327400
C        0.00000000       1.42027000      13.90073000      -0.00103900       0.00094900       0.08336900
C       -1.23002000       3.55073000      13.80817000      -0.00035400       0.13111200       0.05135200
C       -2.46001000       5.68113000      13.80815000       0.11360900      -0.06539100       0.05109700
C        2.45998000       1.42027000      13.80816000       0.11557800      -0.06458900       0.05130800
C        1.22995000       3.55073000      13.80813000       0.00075800       0.13186300       0.05106800
C       -0.00004000       5.68113000      13.79419000       0.00089200       0.00113100       0.00664400
C        4.92002000       1.42027000      13.80816000      -0.11612200      -0.06558000       0.05131700
C        3.69000000       3.55073000      13.79481000      -0.00114700      -0.00176100       0.00067000
C        2.46001000       5.68113000      13.80812000      -0.11612200      -0.06558600       0.05082800
C        0.00000000       0.00000000      10.17709000      -0.00119600      -0.26355300      -0.10446200
C       -1.22999000       2.13040000      10.17706000      -0.22984800       0.13337000      -0.10480100
C       -2.46001000       4.26087000      10.20123000      -0.03290700      -0.02019100       0.00365300
C        2.45998000       0.00000000      10.19993000       0.19542800      -0.11097200      -0.01641000
C        1.22999000       2.13040000      10.17706000       0.22957400       0.13422200      -0.10475300
C       -0.00004000       4.26087000      10.19993000       0.00120700       0.22373600      -0.01640500
C        4.92002000       0.00000000      10.19993000      -0.19608300      -0.11202100      -0.01631900
C        3.69004000       2.13040000      10.20123000      -0.00151300       0.03816500       0.00364700
C        2.46001000       4.26087000      10.20124000       0.03081000      -0.02040700       0.00378400
C        1.22999000       0.71013000      10.17728000       0.22753300      -0.13089500      -0.10471100
C        0.00000000       2.84053000      10.17726000       0.00124700       0.26260100      -0.10490700
C       -1.23002000       4.97100000      10.20118000       0.03611900       0.01900000       0.00398600
C        3.69004000       0.71013000      10.20118000      -0.00079600      -0.04110900       0.00397300
C        2.46005000       2.84053000      10.19962000       0.18937800       0.11036600      -0.01692400
C        1.23002000       4.97100000      10.20119000      -0.03536400       0.01799600       0.00412000
C        6.15001000       0.71013000      10.17728000      -0.22481500      -0.13111300      -0.10467100
C        4.92002000       2.84053000      10.19961000      -0.18963600       0.11116300      -0.01700900
C        3.69000000       4.97100000      10.19963000       0.00118000      -0.22063400      -0.01683000
Li       0.00000000       1.42027000      11.87619000       0.00001300       0.00001700      -0.02994800
37
Lattice="7.380000114 0.0 0.0 -3.690000057 6.391267579 0.0 0.0 0.0 24.0" Properties=species:S:1:pos:R:3:forces:R:3 stress="-0.007668555289406955 5.8826223511449714e-05 8.113961863648234e-08 5.8826223511449714e-05 -0.0075994992324381816 1.810037646506145e-07 8.113961863648234e-08 1.810037646506145e-07 0.002199957204618324" free_energy=-336.40088852 energy=-336.39965381 pbc="T T T"
C        0.00000000       0.00000000      13.85150000       0.00104600      -0.25865100       0.03418100
C       -1.22999000       2.13040000      13.85163000      -0.22306300       0.13080500       0.03420800
C       -2.46001000       4.26087000      13.79492000      -0.03523900      -0.02221200       0.02511700
C        2.45998000       0.00000000      13.80861000       0.03303400      -0.01838300       0.01188600
C        1.22999000       2.13040000      13.85159000       0.22491400       0.13104500       0.03409300
C       -0.00004000       4.26087000      13.80858000       0.00141100       0.03547500       0.01185800
C        4.92002000       0.00000000      13.80857000      -0.03255300      -0.01942200       0.01167100
C        3.69004000       2.13040000      13.79492000      -0.00129500       0.04249800       0.02532000
C        2.46001000       4.26087000      13.79485000       0.03530800      -0.02302100       0.02479300
C        0.00000000       1.42027000      13.91207000      -0.00102700       0.00070000       0.02654900
C       -1.23002000       3.55073000      13.81523000      -0.00136700       0.12885600       0.03540500
C       -2.46001000       5.68113000      13.81518000       0.11121900      -0.06526200       0.03511900
C        2.45998000       1.42027000      13.81522000       0.11416400      -0.06253800       0.03530500
C        1.22995000       3.55073000      13.81516000       0.00179300       0.12958500       0.03514800
C       -0.00004000       5.68113000      13.79286000       0.00087900       0.00111600       0.07075800
C        4.92002000       1.42027000      13.81522000      -0.11469700      -0.06352300       0.03530800
C        3.69000000       3.55073000      13.79260000      -0.00114200      -0.00176800       0.03327600
C        2.46001000       5.68113000      13.81512000      -0.11370300      -0.06543900       0.03486800
C        0.00000000       0.00000000      10.16322000      -0.00119800      -0.26657600      -0.03478000
C       -1.22999000       2.13040000      10.16316000      -0.23252800       0.13495700      -0.03525600
C       -2.46001000       4.26087000      10.20181000      -0.03263200      -0.02004300      -0.02195800
C        2.45998000       0.00000000      10.19790000       0.19104100      -0.10845100      -0.03794500
C        1.22999000       2.13040000      10.16317000       0.23225500       0.13581100      -0.03518800
C       -0.00004000       4.26087000      10.19791000       0.00120500       0.21863300      -0.03799500
C        4.92002000       0.00000000      10.19792000      -0.19168800      -0.10949700      -0.03781400
C        3.69004000       2.13040000      10.20181000      -0.00151300       0.03783300      -0.02197700
C        2.46001000       4.26087000      10.20183000       0.03053600      -0.02026000      -0.02176400
C        1.22999000       0.71013000      10.16338000       0.23050000      -0.13233900      -0.03500900
C        0.00000000       2.84053000      10.16334000       0.00124300       0.26587500      -0.03514500
C       -1.23002000       4.97100000      10.20183000       0.03568800       0.01874000      -0.02157900
C        3.69004000       0.71013000      10.20182000      -0.00079500      -0.04062500      -0.02157800
C        2.46005000       2.84053000      10.19754000       0.18517800       0.10792000      -0.03834900
C        1.23002000       4.97100000      10.20185000      -0.03493300       0.01773600      -0.02138300
C        6.15001000       0.71013000      10.16339000      -0.22779300      -0.13256000      -0.03495000
C        4.92002000       2.84053000      10.19752000      -0.18543400       0.10871700      -0.03847800
C        3.69000000       4.97100000      10.19756000       0.00117900      -0.21581900      -0.03815000
Li       0.00000000       1.42027000      11.86920000       0.00001100       0.00008600       0.01443000
37
Lattice="7.380000114 0.0 0.0 -3.690000057 6.391267579 0.0 0.0 0.0 24.0" Properties=species:S:1:pos:R:3:forces:R:3 stress="-0.00763701070228474 5.885118954795324e-05 8.738112776236562e-08 5.885118954795324e-05 -0.00756786102267908 1.6852074639884797e-07 8.738112776236562e-08 1.6852074639884797e-07 0.002318414806318462" free_energy=-336.40343205 energy=-336.40219854 pbc="T T T"
C        0.00000000       0.00000000      13.85416000       0.00103500      -0.25835000       0.02521300
C       -1.22999000       2.13040000      13.85429000      -0.22279700       0.13064900       0.02527800
C       -2.46001000       4.26087000      13.79664000      -0.03522900      -0.02222700       0.03647500
C        2.45998000       0.00000000      13.80970000       0.03224600      -0.01793300       0.04547000
C        1.22999000       2.13040000      13.85425000       0.22464000       0.13089700       0.02517600
C       -0.00004000       4.26087000      13.80966000       0.00140900       0.03456400       0.04550200
C        4.92002000       0.00000000      13.80964000      -0.03176300      -0.01896700       0.04529400
C        3.69004000       2.13040000      13.79665000      -0.00129700       0.04249300       0.03665400
C        2.46001000       4.26087000      13.79655000       0.03529600      -0.02303400       0.03618700
C        0.00000000       1.42027000      13.91459000      -0.00102400       0.00066600       0.02697800
C       -1.23002000       3.55073000      13.81778000      -0.00154500       0.12901900       0.02968800
C       -2.46001000       5.68113000      13.81771000       0.11128400      -0.06553300       0.02954900
C        2.45998000       1.42027000      13.81776000       0.11440300      -0.06243400       0.02965000
C        1.22995000       3.55073000      13.81769000       0.00197500       0.12973800       0.02945300
C       -0.00004000       5.68113000      13.79643000       0.00087900       0.00113400       0.01629600
C        4.92002000       1.42027000      13.81776000      -0.11493300      -0.06341700       0.02964200
C        3.69000000       3.55073000      13.79394000      -0.00114100      -0.00177800       0.02291100
C        2.46001000       5.68113000      13.81763000      -0.11375800      -0.06570300       0.02930700
C        0.00000000       0.00000000      10.16023000      -0.00119900      -0.26552100      -0.03503000
C       -1.22999000       2.13040000      10.16013000      -0.23163400       0.13445200      -0.03536600
C       -2.46001000       4.26087000      10.20060000      -0.03248200      -0.01996200      -0.03251500
C        2.45998000       0.00000000      10.19560000       0.19051900      -0.10815400      -0.02874000
C        1.22999000       2.13040000      10.16015000       0.23136300       0.13530800      -0.03530200
C       -0.00004000       4.26087000      10.19561000       0.00120300       0.21803600      -0.02877900
C        4.92002000       0.00000000      10.19563000      -0.19116400      -0.10919900      -0.02861500
C        3.69004000       2.13040000      10.20060000      -0.00151300       0.03765900      -0.03258400
C        2.46001000       4.26087000      10.20063000       0.03038600      -0.02017900      -0.03232700
C        1.22999000       0.71013000      10.16037000       0.22971200      -0.13181800      -0.03521600
C        0.00000000       2.84053000      10.16033000       0.00124300       0.26491600      -0.03539800
C       -1.23002000       4.97100000      10.20065000       0.03550300       0.01862800      -0.03233100
C        3.69004000       0.71013000      10.20064000      -0.00079800      -0.04041600      -0.03228400
C        2.46005000       2.84053000      10.19522000       0.18475400       0.10765800      -0.02922400
C        1.23002000       4.97100000      10.20068000      -0.03475000       0.01762300      -0.03214200
C        6.15001000       0.71013000      10.16039000      -0.22700800      -0.13204100      -0.03515500
C        4.92002000       2.84053000      10.19519000      -0.18500600       0.10845600      -0.02935400
C        3.69000000       4.97100000      10.19524000       0.00117800      -0.21534000      -0.02897000
Li       0.00001000       1.42027000      11.86930000       0.00001000       0.00011100       0.01460700
37