37
Lattice="7.380000114 0.0 0.0 -3.690000057 6.391267579 0.0 0.0 0.0 24.0" Properties=species:S:1:pos:R:3:forces:R:3 stress="-0.006775757341022362 5.186694083608987e-05 -1.2738920125927732e-05 5.186694083608987e-05 -0.006715907510014268 7.389946805045778e-06 -1.2738920125927732e-05 7.389946805045778e-06 -0.01378433545545842" free_energy=-334.42940181 energy=-334.42636809 pbc="T T T"
C        0.00000000       0.00000000      13.55000000       0.00119100      -0.38553200       0.39851300
C       -1.22999000       2.13040000      13.55000000      -0.33373600       0.19577500       0.39641900
C       -2.46001000       4.26087000      13.55000000      -0.04725400      -0.03161000       0.11691600
C        2.45998000       0.00000000      13.55000000       0.04323100      -0.02302300       0.13654400
C        1.22999000       2.13040000      13.55000000       0.33581700       0.19598800       0.39639700
C       -0.00004000       4.26087000      13.55000000       0.00467400       0.04290900       0.13450300
C        4.92002000       0.00000000      13.55000000      -0.04260000      -0.02409100       0.13654900
C        3.69004000       2.13040000      13.55000000      -0.00437000       0.05948100       0.11489500
C        2.46001000       4.26087000      13.55000000       0.04750600      -0.03242600       0.11692100
C        0.00000000       1.42027000      13.55000000      -0.00117600       0.00089600       6.36192200
C       -1.23002000       3.55073000      13.55000000       0.02633600       0.15367100       0.15774100
C       -2.46001000       5.68113000      13.55000000       0.14634900      -0.05706100       0.16167600
C        2.45998000       1.42027000      13.55000000       0.12792800      -0.09525300       0.15768400
C        1.22995000       3.55073000      13.55000000      -0.01972700       0.15447300       0.15778200
C       -0.00004000       5.68113000      13.55000000       0.00399000      -0.00067600       0.12676000
C        4.92002000       1.42027000      13.55000000      -0.12865600      -0.09625000       0.15768300
C        3.69000000       3.55073000      13.55000000      -0.00122300      -0.00533200       0.15454600
C        2.46001000       5.68113000      13.55000000      -0.14906000      -0.05728900       0.16168100
C        0.00000000       0.00000000      10.45000000      -0.00118100      -0.36234000      -0.43837900
C       -1.22999000       2.13040000      10.45000000      -0.31644200       0.18463000      -0.43624900
C       -2.46001000       4.26087000      10.45000000      -0.03586100      -0.02429400      -0.12518100
C        2.45998000       0.00000000      10.45000000       0.19100200      -0.10720000      -0.08755400
C        1.22999000       2.13040000      10.45000000       0.31621200       0.18549100      -0.43625800
C       -0.00004000       4.26087000      10.45000000       0.00437900       0.21440800      -0.08552100
C        4.92002000       0.00000000      10.45000000      -0.19162500      -0.10824700      -0.08755200
C        3.69004000       2.13040000      10.45000000      -0.00464700       0.04461600      -0.12314400
C        2.46001000       4.26087000      10.45000000       0.03379500      -0.02451000      -0.12519100
C        1.22999000       0.71013000      10.45000000       0.30443800      -0.17552300      -0.42936400
C        0.00000000       2.84053000      10.45000000       0.00122700       0.35532100      -0.42535200
C       -1.23002000       4.97100000      10.45000000       0.04972800       0.02327500      -0.14350900
C        3.69004000       0.71013000      10.45000000      -0.00398400      -0.05131000      -0.14360000
C        2.46005000       2.84053000      10.45000000       0.17027500       0.10298500      -0.10466100
C        1.23002000       4.97100000      10.45000000      -0.04901700       0.02227100      -0.14351100
C        6.15001000       0.71013000      10.45000000      -0.30176900      -0.17574700      -0.42934400
C        4.92002000       2.84053000      10.45000000      -0.17692900       0.10377800      -0.10467000
C        3.69000000       4.97100000      10.45000000       0.00115300      -0.20222300      -0.10857100
Li       0.00000000       1.42027000      12.00000000       0.00002300      -0.00003100      -5.56752400
37
Lattice="7.380000114 0.0 0.0 -3.690000057 6.391267579 0.0 0.0 0.0 24.0" Properties=species:S:1:pos:R:3:forces:R:3 stress="-0.0075063946408073816 5.7147257556587115e-05 9.362263688824886e-08 5.7147257556587115e-05 -0.007444354040096102 -1.5853433179743477e-06 9.362263688824886e-08 -1.5853433179743477e-06 -0.005486130483923237" free_energy=-334.7931944 energy=-334.78956883 pbc="T T T"
C        0.00000000       0.00000000      13.56923000       0.00111700       0.12095000       1.74773000
C       -1.22999000       2.13040000      13.56912000       0.10619000      -0.05970200       1.74727400
C       -2.46001000       4.26087000      13.55564000      -0.02483000      -0.01647200      -0.13665500
C        2.45998000       0.00000000      13.55659000       0.03655100      -0.02054100       0.22491000
C        1.22999000       2.13040000      13.56912000      -0.10436900      -0.05956800       1.74704700
C       -0.00004000       4.26087000      13.55649000       0.00154100       0.03919100       0.22520600
C        4.92002000       0.00000000      13.55659000      -0.03586500      -0.02161900       0.22482600
C        3.69004000       2.13040000      13.55554000      -0.00117500       0.03042500      -0.13706800
C        2.46001000       4.26087000      13.55564000       0.02501100      -0.01721700      -0.13680400
C        0.00000000       1.42027000      13.85692000      -0.00078100       0.00179600      -3.49413000
C       -1.23002000       3.55073000      13.55761000      -0.01618700       0.11601500       0.05971600
C       -2.46001000       5.68113000      13.55780000       0.09258400      -0.07154600       0.05856500
C        2.45998000       1.42027000      13.55761000       0.11021400      -0.04353900       0.05989100
C        1.22995000       3.55073000      13.55761000       0.01624200       0.11650300       0.05911500
C       -0.00004000       5.68113000      13.55612000       0.00080700       0.00103700       0.13664800
C        4.92002000       1.42027000      13.55761000      -0.11103800      -0.04451200       0.05988600
C        3.69000000       3.55073000      13.55746000      -0.00123400      -0.00188200       0.17750800
C        2.46001000       5.68113000      13.55780000      -0.09517600      -0.07155600       0.05804300
C        0.00000000       0.00000000      10.42885000      -0.00117900      -0.75079000      -0.67698600
C       -1.22999000       2.13040000      10.42895000      -0.65184900       0.37690900      -0.67654700
C       -2.46001000       4.26087000      10.44396000      -0.02509300      -0.01586400      -0.11201600
C        2.45998000       0.00000000      10.44578000       0.21285600      -0.12119400      -0.16340800
C        1.22999000       2.13040000      10.42895000       0.65161900       0.37777900      -0.67650300
C       -0.00004000       4.26087000      10.44587000       0.00120900       0.24371200      -0.16295500
C        4.92002000       0.00000000      10.44578000      -0.21347200      -0.12223600      -0.16334000
C        3.69004000       2.13040000      10.44406000      -0.00148500       0.02899600      -0.11238200
C        2.46001000       4.26087000      10.44396000       0.02302100      -0.01608000      -0.11192400
C        1.22999000       0.71013000      10.42929000       0.64038500      -0.36383000      -0.67888800
C        0.00000000       2.84053000      10.42948000       0.00124300       0.73406000      -0.68620100
C       -1.23002000       4.97100000      10.44308000       0.03519900       0.01832600      -0.10785100
C        3.69004000       0.71013000      10.44307000      -0.00079800      -0.04019500      -0.10761400
C        2.46005000       2.84053000      10.44495000       0.19168700       0.11153800      -0.16218600
C        1.23002000       4.97100000      10.44308000      -0.03445500       0.01732100      -0.10776500
C        6.15001000       0.71013000      10.42929000      -0.63770400      -0.36405500      -0.67885500
C        4.92002000       2.84053000      10.44495000      -0.19196800       0.11233600      -0.16222300
C        3.69000000       4.97100000      10.44476000       0.00117000      -0.22344800      -0.16115200
Li       0.00000000       1.42027000      11.73141000       0.00001000      -0.00104800       3.02708900
37
Lattice="7.380000114 0.0 0.0 -3.690000057 6.391267579 0.0 0.0 0.0 24.0" Properties=species:S:1:pos:R:3:forces:R:3 stress="-0.0077721830654239946 5.794617072470017e-05 -8.738112776236562e-08 5.794617072470017e-05 -0.007704325378207391 5.804603487071431e-07 -8.738112776236562e-08 5.804603487071431e-07 -0.006465516888411208" free_energy=-335.4297079 energy=-335.42722099 pbc="T T T"
C        0.00000000       0.00000000      13.62083000       0.00111700      -0.25564800       0.40665500
C       -1.22999000       2.13040000      13.62072000      -0.22018700       0.12910000       0.40658600
C       -2.46001000       4.26087000      13.55161000      -0.04811100      -0.02967900       0.01892000
C        2.45998000       0.00000000      13.56323000       0.03884000      -0.02171000       0.10964700
C        1.22999000       2.13040000      13.62071000       0.22213200       0.12930600       0.40628500
C       -0.00004000       4.26087000      13.56314000       0.00149600       0.04197800       0.10968900
C        4.92002000       0.00000000      13.56323000      -0.03820900      -0.02276700       0.10929400
C        3.69004000       2.13040000      13.55150000      -0.00120900       0.05737200       0.01897600
C        2.46001000       4.26087000      13.55160000       0.04829300      -0.03046400       0.01837700
C        0.00000000       1.42027000      13.75374000      -0.00102700       0.00188000      -0.32234800
C       -1.23002000       3.55073000      13.55937000       0.01938500       0.09545200       0.35340500
C       -2.46001000       5.68113000      13.55953000       0.09252500      -0.03040000       0.35282400
C        2.45998000       1.42027000      13.55938000       0.07469900      -0.06390600       0.35342900
C        1.22995000       3.55073000      13.55936000      -0.01915800       0.09610000       0.35302000
C       -0.00004000       5.68113000      13.56015000       0.00083400       0.00116200       0.02700900
C        4.92002000       1.42027000      13.55938000      -0.07540300      -0.06488100       0.35341800
C        3.69000000       3.55073000      13.56270000      -0.00121400      -0.00178100       0.04559800
C        2.46001000       5.68113000      13.55951000      -0.09511200      -0.03052800       0.35246600
C        0.00000000       0.00000000      10.40886000      -0.00115100      -0.55305400      -0.48812400
C       -1.22999000       2.13040000      10.40898000      -0.48062500       0.27820200      -0.48952800
C       -2.46001000       4.26087000      10.44065000      -0.03226000      -0.01990600      -0.10800800
C        2.45998000       0.00000000      10.44095000       0.20844000      -0.11852900      -0.19242100
C        1.22999000       2.13040000      10.40898000       0.48045500       0.27907000      -0.48945800
C       -0.00004000       4.26087000      10.44106000       0.00124100       0.23857900      -0.19360600
C        4.92002000       0.00000000      10.44095000      -0.20900000      -0.11957300      -0.19229100
C        3.69004000       2.13040000      10.44074000      -0.00145900       0.03743700      -0.10814400
C        2.46001000       4.26087000      10.44066000       0.03025000      -0.02012400      -0.10782600
C        1.22999000       0.71013000      10.40924000       0.46234500      -0.26632700      -0.48063500
C        0.00000000       2.84053000      10.40922000       0.00120200       0.53366800      -0.47946800
C       -1.23002000       4.97100000      10.43989000       0.04270100       0.02284400      -0.09736100
C        3.69004000       0.71013000      10.43989000      -0.00083700      -0.04878400      -0.09739400
C        2.46005000       2.84053000      10.44016000       0.18366400       0.10709500      -0.18003900
C        1.23002000       4.97100000      10.43989000      -0.04203300       0.02183900      -0.09717800
C        6.15001000       0.71013000      10.40924000      -0.45973900      -0.26655100      -0.48057900
C        4.92002000       2.84053000      10.44016000      -0.18402200       0.10789400      -0.18013900
C        3.69000000       4.97100000      10.44000000       0.00113200      -0.21410300      -0.17959400
Li       0.00000000       1.42024000      11.82079000       0.00000400      -0.00026400       1.16854500
37
Lattice="7.380000114 0.0 0.0 -3.690000057 6.391267579 0.0 0.0 0.0 24.0" Properties=species:S:1:pos:R:3:forces:R:3 stress="-0.007536509922339769 5.8102208452847255e-05 -6.865660038471585e-08 5.8102208452847255e-05 -0.007468608544559285 2.371773467835638e-07 -6.865660038471585e-08 2.371773467835638e-07 -0.006172153476476444" free_energy=-335.57202698 energy=-335.57005422 pbc="T T T"
C        0.00000000       0.00000000      13.63356000       0.00109000      -0.27901900       0.37012400
C       -1.22999000       2.13040000      13.63344000      -0.24042100       0.14074500       0.36976600
C       -2.46001000       4.26087000      13.55315000      -0.04718700      -0.02913300       0.19432500
C        2.45998000       0.00000000      13.56774000       0.03801400      -0.02130200       0.22767700
C        1.22999000       2.13040000      13.63342000       0.24233600       0.14096800       0.36956900
C       -0.00004000       4.26087000      13.56765000       0.00147300       0.04106800       0.22775000
C        4.92002000       0.00000000      13.56772000      -0.03740500      -0.02234600       0.22738200
C        3.69004000       2.13040000      13.55304000      -0.00122200       0.05624200       0.19456300
C        2.46001000       4.26087000      13.55312000       0.04734600      -0.02991700       0.19387600
C        0.00000000       1.42027000      13.75286000      -0.00100900       0.00187000       0.17681800
C       -1.23002000       3.55073000      13.57680000       0.01562200       0.11110600       0.16001500
C       -2.46001000       5.68113000      13.57693000       0.10429000      -0.04172700       0.15960100
C        2.45998000       1.42027000      13.57680000       0.09021900      -0.06836300       0.15999700
C        1.22995000       3.55073000      13.57677000      -0.01534800       0.11176600       0.15951400
C       -0.00004000       5.68113000      13.56091000       0.00084100       0.00112100       0.02356200
C        4.92002000       1.42027000      13.57680000      -0.09087800      -0.06933400       0.16002900
C        3.69000000       3.55073000      13.56420000      -0.00120600      -0.00180600       0.01833600
C        2.46001000       5.68113000      13.57690000      -0.10684400      -0.04186400       0.15915500
C        0.00000000       0.00000000      10.38738000      -0.00114300      -0.47137500      -0.33492700
C       -1.22999000       2.13040000      10.38743000      -0.40989300       0.23739200      -0.33472000
C       -2.46001000       4.26087000      10.43574000      -0.03371300      -0.02075400      -0.12253200
C        2.45998000       0.00000000      10.43203000       0.19760400      -0.11230200      -0.16770000
C        1.22999000       2.13040000      10.38743000       0.40974400       0.23825900      -0.33463900
C       -0.00004000       4.26087000      10.43208000       0.00124900       0.22612400      -0.16752700
C        4.92002000       0.00000000      10.43204000      -0.19813700      -0.11334500      -0.16752200
C        3.69004000       2.13040000      10.43582000      -0.00144900       0.03907200      -0.12287100
C        2.46001000       4.26087000      10.43575000       0.03172300      -0.02097500      -0.12228200
C        1.22999000       0.71013000      10.38815000       0.39340900      -0.22607100      -0.34405200
C        0.00000000       2.84053000      10.38821000       0.00118700       0.45381600      -0.34444100
C       -1.23002000       4.97100000      10.43549000       0.04374200       0.02343600      -0.12749400
C        3.69004000       0.71013000      10.43549000      -0.00084700      -0.04999400      -0.12710100
C        2.46005000       2.84053000      10.43186000       0.17327000       0.10102400      -0.17081000
C        1.23002000       4.97100000      10.43550000      -0.04309800       0.02243200      -0.12723900
C        6.15001000       0.71013000      10.38815000      -0.39083300      -0.22629800      -0.34398800
C        4.92002000       2.84053000      10.43185000      -0.17364200       0.10182500      -0.17097100
C        3.69000000       4.97100000      10.43172000       0.00112000      -0.20220300      -0.16988800
Li       0.00000000       1.42023000      11.86607000      -0.00000300      -0.00014000       0.24864600
37
Lattice="7.380000114 0.0 0.0 -3.690000057 6.391267579 0.0 0.0 0.0 24.0" Properties=species:S:1:pos:R:3:forces:R:3 stress="-0.0071588237221143205 5.802106883421077e-05 -2.4966036503533037e-08 5.802106883421077e-05 -0.007092701174434713 -1.204611261295469e-06 -2.4966036503533037e-08 -1.204611261295469e-06 -0.004927702662430462" free_energy=-335.73270668 energy=-335.73090598 pbc="T T T"
C        0.00000000       0.00000000      13.67052000       0.00100700      -0.31975200       0.11389000
C       -1.22999000       2.13040000      13.67037000      -0.27557400       0.16093500       0.11514300
C       -2.46001000       4.26087000      13.57180000      -0.05101300      -0.03126600       0.02844900
C        2.45998000       0.00000000      13.59018000       0.04536200      -0.02550800       0.06212700
C        1.22999000       2.13040000      13.67032000       0.27743300       0.16122700       0.11495000
C       -0.00004000       4.26087000      13.59010000       0.00145900       0.04957500       0.06207400
C        4.92002000       0.00000000      13.59013000      -0.04474000      -0.02652300       0.06181500
C        3.69004000       2.13040000      13.57172000      -0.00123000       0.06067700       0.02897800
C        2.46001000       4.26087000      13.57172000       0.05113800      -0.03203600       0.02792600
C        0.00000000       1.42027000      13.77290000      -0.00098100       0.00147700       0.53031900
C       -1.23002000       3.55073000      13.59823000       0.01841900       0.09973900       0.23984400
C       -2.46001000       5.68113000      13.59831000       0.09600500      -0.03375300       0.23981500
C        2.45998000       1.42027000      13.59823000       0.07914500      -0.06479100       0.23963900
C        1.22995000       3.55073000      13.59814000      -0.01813400       0.10034000       0.23940800
C       -0.00004000       5.68113000      13.56321000       0.00082200       0.00116600       0.23585800
C        4.92002000       1.42027000      13.59823000      -0.07975400      -0.06574500       0.23965200
C        3.69000000       3.55073000      13.56627000      -0.00117900      -0.00173100       0.22888800
C        2.46001000       5.68113000      13.59824000      -0.09845800      -0.03384600       0.23938900
C        0.00000000       0.00000000      10.34901000      -0.00115500      -0.41165600      -0.17896300
C       -1.22999000       2.13040000      10.34904000      -0.35802800       0.20741300      -0.17824300
C       -2.46001000       4.26087000      10.42268000      -0.03399100      -0.02079800      -0.12400100
C        2.45998000       0.00000000      10.41332000       0.17667200      -0.10013400      -0.15400200
C        1.22999000       2.13040000      10.34906000       0.35786800       0.20828800      -0.17812300
C       -0.00004000       4.26087000      10.41337000       0.00125800       0.20204200      -0.15392000
C        4.92002000       0.00000000      10.41335000      -0.17719200      -0.10117000      -0.15377500
C        3.69004000       2.13040000      10.42273000      -0.00146500       0.03941500      -0.12437200
C        2.46001000       4.26087000      10.42272000       0.03199000      -0.02102000      -0.12367400
C        1.22999000       0.71013000      10.34908000       0.34439300      -0.19821900      -0.17424600
C        0.00000000       2.84053000      10.34916000       0.00120200       0.39757100      -0.17412400
C       -1.23002000       4.97100000      10.42217000       0.04276400       0.02292600      -0.11823300
C        3.69004000       0.71013000      10.42221000      -0.00084900      -0.04867400      -0.11827000
C        2.46005000       2.84053000      10.41310000       0.15598900       0.09089800      -0.14583400
C        1.23002000       4.97100000      10.42221000      -0.04211000       0.02192300      -0.11789100
C        6.15001000       0.71013000      10.34909000      -0.34182200      -0.19846800      -0.17414200
C        4.92002000       2.84053000      10.41308000      -0.15636700       0.09170700      -0.14606400
C        3.69000000       4.97100000      10.41305000       0.00112800      -0.18223800      -0.14541200
Li       0.00000000       1.42021000      11.90298000      -0.00000900       0.00000900      -0.36487400
37
Lattice="7.380000114 0.0 0.0 -3.690000057 6.391267579 0.0 0.0 0.0 24.0" Properties=species:S:1:pos:R:3:forces:R:3 stress="-0.00699847935267038 5.7933687706448404e-05 4.369056388118281e-08 5.7933687706448404e-05 -0.006933186925704515 -4.4938865706359457e-07 4.369056388118281e-08 -4.4938865706359457e-07 -0.003534722655715836" free_energy=-335.8526078 energy=-335.85081314 pbc="T T T"
C        0.00000000       0.00000000      13.70208000       0.00091500      -0.32142100       0.09338200
C       -1.22999000       2.13040000      13.70198000      -0.27702100       0.16180800       0.09505600
C       -2.46001000       4.26087000      13.58320000      -0.04823200      -0.02961800       0.18541200
C        2.45998000       0.00000000      13.60664000       0.04188200      -0.02338100       0.13806100
C        1.22999000       2.13040000      13.70191000       0.27881700       0.16217200       0.09487200
C       -0.00004000       4.26087000      13.60656000       0.00142500       0.04542600       0.13753000
C        4.92002000       0.00000000      13.60655000      -0.04123900      -0.02434600       0.13775200
C        3.69004000       2.13040000      13.58316000      -0.00123300       0.05755400       0.18566800
C        2.46001000       4.26087000      13.58306000       0.04833700      -0.03036400       0.18492600
C        0.00000000       1.42027000      13.80490000      -0.00093600       0.00112400       0.45553000
C       -1.23002000       3.55073000      13.62476000       0.01405200       0.10035200       0.14924200
C       -2.46001000       5.68113000      13.62481000       0.09470000      -0.03783200       0.14967300
C        2.45998000       1.42027000      13.62474000       0.08187800      -0.06134800       0.14916500
C        1.22995000       3.55073000      13.62462000      -0.01376200       0.10087100       0.14880300
C       -0.00004000       5.68113000      13.57815000       0.00080200       0.00107500       0.12606500
C        4.92002000       1.42027000      13.62475000      -0.08245700      -0.06229400       0.14917600
C        3.69000000       3.55073000      13.58084000      -0.00116600      -0.00172000       0.09658000
C        2.46001000       5.68113000      13.62468000      -0.09705800      -0.03787800       0.14922300
C        0.00000000       0.00000000      10.31498000      -0.00117500      -0.39614600      -0.08363700
C       -1.22999000       2.13040000      10.31505000      -0.34448900       0.19968100      -0.08466700
C       -2.46001000       4.26087000      10.40802000      -0.03380400      -0.02074400      -0.17638600
C        2.45998000       0.00000000      10.39350000       0.16075600      -0.09075200      -0.12524200
C        1.22999000       2.13040000      10.31507000       0.34432000       0.20057300      -0.08451100
C       -0.00004000       4.26087000      10.39354000       0.00125000       0.18353100      -0.12487700
C        4.92002000       0.00000000      10.39355000      -0.16125600      -0.09178000      -0.12499400
C        3.69004000       2.13040000      10.40803000      -0.00146100       0.03928400      -0.17664000
C        2.46001000       4.26087000      10.40809000       0.03179400      -0.02096000      -0.17601400
C        1.22999000       0.71013000      10.31498000       0.33234800      -0.19161900      -0.08257200
C        0.00000000       2.84053000      10.31505000       0.00122100       0.38396900      -0.08263100
C       -1.23002000       4.97100000      10.40774000       0.04196200       0.02235400      -0.17902300
C        3.69004000       0.71013000      10.40779000      -0.00084000      -0.04741100      -0.17934800
C        2.46005000       2.84053000      10.39376000       0.14077900       0.08221000      -0.14620200
C        1.23002000       4.97100000      10.40782000      -0.04130400       0.02135400      -0.17863700
C        6.15001000       0.71013000      10.31500000      -0.32978500      -0.19189500      -0.08244100
C        4.92002000       2.84053000      10.39372000      -0.14113800       0.08302700      -0.14646400
C        3.69000000       4.97100000      10.39379000       0.00113200      -0.16491500      -0.14671000
Li       0.00000000       1.42020000      11.91316000      -0.00001600       0.00006200      -0.44512100
37
Lattice="7.380000114 0.0 0.0 -3.690000057 6.391267579 0.0 0.0 0.0 24.0" Properties=species:S:1:pos:R:3:forces:R:3 stress="-0.00636537187448641 5.814589901672844e-05 -6.241509125883259e-08 5.814589901672844e-05 -0.006298799938149741 1.2420603160507684e-06 -6.241509125883259e-08 1.2420603160507684e-06 -0.0017337476804604737" free_energy=-335.98529379 energy=-335.98358407 pbc="T T T"
C        0.00000000       0.00000000      13.73789000       0.00078800      -0.30543500       0.12192300
C       -1.22999000       2.13040000      13.73796000      -0.26353700       0.15417800       0.12145900
C       -2.46001000       4.26087000      13.60650000      -0.04723000      -0.02929700       0.18997400
C        2.45998000       0.00000000      13.63056000       0.03880200      -0.02163500       0.16946200
C        1.22999000       2.13040000      13.73785000       0.26523800       0.15463300       0.12128800
C       -0.00004000       4.26087000      13.63044000       0.00138900       0.04174400       0.16888500
C        4.92002000       0.00000000      13.63042000      -0.03810400      -0.02253000       0.16919400
C        3.69004000       2.13040000      13.60651000      -0.00120700       0.05655600       0.18913500
C        2.46001000       4.26087000      13.60628000       0.04702100      -0.02983900       0.21070700
C        0.00000000       1.42027000      13.84971000      -0.00085800       0.00172700      -0.00210400
C       -1.23002000       3.55073000      13.65527000       0.01199000       0.09651100       0.04088600
C       -2.46001000       5.68113000      13.65534000       0.08997700      -0.03770500       0.04037800
C        2.45998000       1.42027000      13.65525000       0.07946500      -0.05774600       0.04088700
C        1.22995000       3.55073000      13.65506000      -0.01167900       0.09689700       0.04052400
C       -0.00004000       5.68113000      13.59743000       0.00075600       0.00094600       0.14670900
C        4.92002000       1.42027000      13.65526000      -0.07997900      -0.05869100       0.04089700
C        3.69000000       3.55073000      13.59764000      -0.00110800      -0.00197200       0.18331100
C        2.46001000       5.68113000      13.65513000      -0.09216700      -0.03766200       0.04002100
C        0.00000000       0.00000000      10.28166000      -0.00119000      -0.39263800      -0.05319900
C       -1.22999000       2.13040000      10.28165000      -0.34146200       0.19791500      -0.05442800
C       -2.46001000       4.26087000      10.38320000      -0.03406300      -0.02114100      -0.16292600
C        2.45998000       0.00000000      10.36916000       0.14999400      -0.08456200      -0.12765100
C        1.22999000       2.13040000      10.28170000       0.34130700       0.19883200      -0.05429300
C       -0.00004000       4.26087000      10.36922000       0.00125300       0.17098500      -0.12748500
C        4.92002000       0.00000000      10.36924000      -0.15045200      -0.08557300      -0.12744700
C        3.69004000       2.13040000      10.38316000      -0.00146500       0.03962500      -0.16244800
C        2.46001000       4.26087000      10.38332000       0.03206000      -0.02134400      -0.16262200
C        1.22999000       0.71013000      10.28165000       0.33406400      -0.19203100      -0.04600300
C        0.00000000       2.84053000      10.28171000       0.00125400       0.38545400      -0.04614000
C       -1.23002000       4.97100000      10.38286000       0.04104700       0.02163500      -0.14280300
C        3.69004000       0.71013000      10.38289000      -0.00084600      -0.04640300      -0.14335900
C        2.46005000       2.84053000      10.36795000       0.13574500       0.07927600      -0.10638100
C        1.23002000       4.97100000      10.38298000      -0.04035500       0.02062600      -0.14250800
C        6.15001000       0.71013000      10.28169000      -0.33149200      -0.19233900      -0.04588600
C        4.92002000       2.84053000      10.36787000      -0.13609200       0.08010600      -0.10660100
C        3.69000000       4.97100000      10.36799000       0.00114300      -0.15923700      -0.10698400
Li      -0.00000000       1.42019000      11.89959000      -0.00000900       0.00013400      -0.11437500
37