37
Lattice="7.380000114 0.0 0.0 -3.690000057 6.391267579 0.0 0.0 0.0 24.0" Properties=species:S:1:pos:R:3:forces:R:3 stress="-0.0068221629613733036 5.8994744257848565e-05 3.744905475529955e-08 5.8994744257848565e-05 -0.006754068096809918 -2.4966036503533037e-08 3.744905475529955e-08 -2.4966036503533037e-08 -0.0032550593563123852" free_energy=-335.71036259 energy=-335.70901998 pbc="T T T"
C        0.00000000       0.00000000      13.70000000       0.00113400      -0.31889100       0.16068200
C       -1.22999000       2.13040000      13.70000000      -0.27502700       0.16065600       0.16105700
C       -2.46001000       4.26087000      13.70000000      -0.04061600      -0.02525300       0.01568300
C        2.45998000       0.00000000      13.70000000       0.03527200      -0.01967200       0.03700900
C        1.22999000       2.13040000      13.70000000       0.27699300       0.16086600       0.16101700
C       -0.00004000       4.26087000      13.70000000       0.00146200       0.03809300       0.03726000
C        4.92002000       0.00000000      13.70000000      -0.03474700      -0.02073700       0.03701000
C        3.69004000       2.13040000      13.70000000      -0.00126800       0.04874500       0.01590800
C        2.46001000       4.26087000      13.70000000       0.04076600      -0.02607100       0.01566100
C        0.00000000       1.42027000      13.70000000      -0.00111700       0.00106300       3.42290200
C       -1.23002000       3.55073000      13.70000000       0.00805600       0.15119200       0.02944200
C       -2.46001000       5.68113000      13.70000000       0.13518300      -0.06822900       0.02922600
C        2.45998000       1.42027000      13.70000000       0.12870300      -0.08171000       0.02948900
C        1.22995000       3.55073000      13.70000000      -0.00769500       0.15197300       0.02944500
C       -0.00004000       5.68113000      13.70000000       0.00087200       0.00101000       0.00888600
C        4.92002000       1.42027000      13.70000000      -0.12932700      -0.08271000       0.02949300
C        3.69000000       3.55073000      13.70000000      -0.00117500      -0.00174200       0.03806800
C        2.46001000       5.68113000      13.70000000      -0.13779800      -0.06844900       0.02922900
C        0.00000000       0.00000000      10.30000000      -0.00116400      -0.25192700      -0.18971300
C       -1.22999000       2.13040000      10.30000000      -0.21976100       0.12756300      -0.19008800
C       -2.46001000       4.26087000      10.30000000      -0.03586300      -0.02185600      -0.02933200
C        2.45998000       0.00000000      10.30000000       0.18517600      -0.10505300       0.01105800
C        1.22999000       2.13040000      10.30000000       0.21954400       0.12841000      -0.19005000
C       -0.00004000       4.26087000      10.30000000       0.00123500       0.21194400       0.01084200
C        4.92002000       0.00000000      10.30000000      -0.18577700      -0.10610500       0.01106300
C        3.69004000       2.13040000      10.30000000      -0.00148000       0.04156100      -0.02958300
C        2.46001000       4.26087000      10.30000000       0.03383000      -0.02207000      -0.02931800
C        1.22999000       0.71013000      10.30000000       0.21616200      -0.12436400      -0.17896200
C        0.00000000       2.84053000      10.30000000       0.00121700       0.24957800      -0.17922500
C       -1.23002000       4.97100000      10.30000000       0.04042600       0.02153600      -0.03287400
C        3.69004000       0.71013000      10.30000000      -0.00082800      -0.04591200      -0.03283300
C        2.46005000       2.84053000      10.30000000       0.17805700       0.10370600       0.00720900
C        1.23002000       4.97100000      10.30000000      -0.03974000       0.02053500      -0.03287400
C        6.15001000       0.71013000      10.30000000      -0.21349800      -0.12458000      -0.17893600
C        4.92002000       2.84053000      10.30000000      -0.17837600       0.10450000       0.00720000
C        3.69000000       4.97100000      10.30000000       0.00114900      -0.20763800       0.00743300
Li       0.00000000       1.42027000      12.00000000       0.00001900       0.00003800      -3.04848200
37
Lattice="7.380000114 0.0 0.0 -3.690000057 6.391267579 0.0 0.0 0.0 24.0" Properties=species:S:1:pos:R:3:forces:R:3 stress="-0.0069507942229486315 5.848918201865202e-05 1.0610565514001541e-07 5.848918201865202e-05 -0.006883061365914547 2.2469432853179729e-07 1.0610565514001541e-07 2.2469432853179729e-07 0.00021200534047887665" free_energy=-336.01905926 energy=-336.01741107 pbc="T T T"
C        0.00000000       0.00000000      13.70775000       0.00108900      -0.13599900       0.93357500
C       -1.22999000       2.13040000      13.70777000      -0.11671400       0.06926700       0.93418900
C       -2.46001000       4.26087000      13.70076000      -0.02652000      -0.01713400      -0.11980100
C        2.45998000       0.00000000      13.70179000       0.03322700      -0.01851400       0.08020700
C        1.22999000       2.13040000      13.70777000       0.11855700       0.06944700       0.93404900
C       -0.00004000       4.26087000      13.70180000       0.00145600       0.03570300       0.08029800
C        4.92002000       0.00000000      13.70179000      -0.03270800      -0.01957700       0.08016500
C        3.69004000       2.13040000      13.70077000      -0.00127400       0.03244200      -0.11961600
C        2.46001000       4.26087000      13.70076000       0.02662500      -0.01793400      -0.11988800
C        0.00000000       1.42027000      13.86513000      -0.00097900       0.00157700      -1.32038400
C       -1.23002000       3.55073000      13.70142000      -0.00167900       0.14646600      -0.00358000
C       -2.46001000       5.68113000      13.70141000       0.12627100      -0.07435700      -0.00390300
C        2.45998000       1.42027000      13.70142000       0.12952200      -0.07095800      -0.00364300
C        1.22995000       3.55073000      13.70142000       0.00201500       0.14717200      -0.00402600
C       -0.00004000       5.68113000      13.70043000       0.00088200       0.00097700       0.04187000
C        4.92002000       1.42027000      13.70142000      -0.13014100      -0.07194600      -0.00364900
C        3.69000000       3.55073000      13.70184000      -0.00116400      -0.00178700       0.05822300
C        2.46001000       5.68113000      13.70141000      -0.12882200      -0.07452400      -0.00429000
C        0.00000000       0.00000000      10.29085000      -0.00117900      -0.36084400      -0.28618200
C       -1.22999000       2.13040000      10.29083000      -0.31410000       0.18202400      -0.28673700
C       -2.46001000       4.26087000      10.29858000      -0.03445000      -0.02104600      -0.00773000
C        2.45998000       0.00000000      10.30053000       0.20408800      -0.11599800      -0.03774700
C        1.22999000       2.13040000      10.29083000       0.31386000       0.18287700      -0.28672400
C       -0.00004000       4.26087000      10.30052000       0.00121900       0.23377800      -0.03791200
C        4.92002000       0.00000000      10.30053000      -0.20471200      -0.11704500      -0.03770800
C        3.69004000       2.13040000      10.29857000      -0.00149400       0.03989800      -0.00786100
C        2.46001000       4.26087000      10.29859000       0.03238500      -0.02126000      -0.00770400
C        1.22999000       0.71013000      10.29137000       0.30922700      -0.17795900      -0.28455800
C        0.00000000       2.84053000      10.29135000       0.00123600       0.35691500      -0.28489800
C       -1.23002000       4.97100000      10.29841000       0.03975900       0.02109500      -0.00585000
C        3.69004000       0.71013000      10.29842000      -0.00080900      -0.04512300      -0.00586200
C        2.46005000       2.84053000      10.30035000       0.19466200       0.11325000      -0.03794200
C        1.23002000       4.97100000      10.29841000      -0.03903200       0.02009100      -0.00579900
C        6.15001000       0.71013000      10.29137000      -0.30653700      -0.17817900      -0.28453900
C        4.92002000       2.84053000      10.30035000      -0.19494600       0.11404700      -0.03798200
C        3.69000000       4.97100000      10.30036000       0.00116900      -0.22682400      -0.03764600
Li       0.00000000       1.42027000      11.85293000       0.00001000      -0.00001800       0.54158400
37
Lattice="7.380000114 0.0 0.0 -3.690000057 6.391267579 0.0 0.0 0.0 24.0" Properties=species:S:1:pos:R:3:forces:R:3 stress="-0.006901810859328699 5.866394427417675e-05 1.8724527377649774e-08 5.866394427417675e-05 -0.006833385194781641 2.4341885590944707e-07 1.8724527377649774e-08 2.4341885590944707e-07 -0.00017559237623847372" free_energy=-336.12216307 energy=-336.12063012 pbc="T T T"
C        0.00000000       0.00000000      13.73998000       0.00109400      -0.26108400       0.20276400
C       -1.22999000       2.13040000      13.74002000      -0.22509900       0.13198900       0.20271200
C       -2.46001000       4.26087000      13.69662000      -0.03795800      -0.02373600      -0.04313100
C        2.45998000       0.00000000      13.70455000       0.03349800      -0.01868000       0.01778100
C        1.22999000       2.13040000      13.74001000       0.22699200       0.13219500       0.20252400
C       -0.00004000       4.26087000      13.70457000       0.00144300       0.03601400       0.01768500
C        4.92002000       0.00000000      13.70455000      -0.03299700      -0.01973800       0.01752300
C        3.69004000       2.13040000      13.69664000      -0.00128200       0.04562400      -0.04300300
C        2.46001000       4.26087000      13.69662000       0.03805800      -0.02454500      -0.04353200
C        0.00000000       1.42027000      13.81955000      -0.00104500       0.00097100       0.22921600
C       -1.23002000       3.55073000      13.70130000       0.00665200       0.12724600       0.17969800
C       -2.46001000       5.68113000      13.70128000       0.11382900      -0.05756900       0.17935800
C        2.45998000       1.42027000      13.70130000       0.10874400      -0.06857600       0.17962400
C        1.22995000       3.55073000      13.70128000      -0.00627600       0.12798800       0.17947800
C       -0.00004000       5.68113000      13.70187000       0.00088900       0.00095100      -0.02575700
C        4.92002000       1.42027000      13.70130000      -0.10932900      -0.06956300       0.17963000
C        3.69000000       3.55073000      13.70385000      -0.00115900      -0.00181200      -0.02347800
C        2.46001000       5.68113000      13.70126000      -0.11637300      -0.05776100       0.17915000
C        0.00000000       0.00000000      10.28097000      -0.00118500      -0.33680600      -0.23876900
C       -1.22999000       2.13040000      10.28093000      -0.29335000       0.17009500      -0.23936400
C       -2.46001000       4.26087000      10.29832000      -0.03506300      -0.02139700      -0.01100700
C        2.45998000       0.00000000      10.29923000       0.20182900      -0.11469900      -0.05725500
C        1.22999000       2.13040000      10.28093000       0.29309400       0.17094700      -0.23932700
C       -0.00004000       4.26087000      10.29921000       0.00121300       0.23116500      -0.05739000
C        4.92002000       0.00000000      10.29923000      -0.20246600      -0.11574600      -0.05717900
C        3.69004000       2.13040000      10.29830000      -0.00150200       0.04059500      -0.01114600
C        2.46001000       4.26087000      10.29832000       0.03298600      -0.02161200      -0.01089400
C        1.22999000       0.71013000      10.28154000       0.28823500      -0.16561400      -0.24034000
C        0.00000000       2.84053000      10.28152000       0.00123600       0.33251200      -0.24064800
C       -1.23002000       4.97100000      10.29821000       0.04009700       0.02127600      -0.00993400
C        3.69004000       0.71013000      10.29821000      -0.00080500      -0.04551300      -0.00996300
C        2.46005000       2.84053000      10.29904000       0.19210600       0.11175000      -0.05631900
C        1.23002000       4.97100000      10.29821000      -0.03936300       0.02027400      -0.00983300
C        6.15001000       0.71013000      10.28155000      -0.28554000      -0.16583200      -0.24031200
C        4.92002000       2.84053000      10.29904000      -0.19238400       0.11254600      -0.05636200
C        3.69000000       4.97100000      10.29906000       0.00117000      -0.22390200      -0.05600400
Li       0.00000000       1.42027000      11.87163000       0.00001000       0.00004600       0.05380300
37
Lattice="7.380000114 0.0 0.0 -3.690000057 6.391267579 0.0 0.0 0.0 24.0" Properties=species:S:1:pos:R:3:forces:R:3 stress="-0.006815459580572105 5.862025371029557e-05 4.369056388118281e-08 5.862025371029557e-05 -0.006746790497169137 -2.4966036503533037e-08 4.369056388118281e-08 -2.4966036503533037e-08 5.982486497159104e-05" free_energy=-336.15683811 energy=-336.15533827 pbc="T T T"
C        0.00000000       0.00000000      13.75063000       0.00108000      -0.26158200       0.19412400
C       -1.22999000       2.13040000      13.75067000      -0.22552600       0.13220900       0.19384600
C       -2.46001000       4.26087000      13.69439000      -0.03811900      -0.02386000       0.06306500
C        2.45998000       0.00000000      13.70549000       0.03332900      -0.01859300       0.10079100
C        1.22999000       2.13040000      13.75065000       0.22740500       0.13242200       0.19369900
C       -0.00004000       4.26087000      13.70550000       0.00143600       0.03579800       0.10077500
C        4.92002000       0.00000000      13.70547000      -0.03282900      -0.01964400       0.10057100
C        3.69004000       2.13040000      13.69441000      -0.00128200       0.04579500       0.06324400
C        2.46001000       4.26087000      13.69436000       0.03821200      -0.02466500       0.06271000
C        0.00000000       1.42027000      13.83068000      -0.00102900       0.00117200       0.16878600
C       -1.23002000       3.55073000      13.71042000       0.00535600       0.12758100       0.09853700
C       -2.46001000       5.68113000      13.71038000       0.11355200      -0.05898200       0.09826200
C        2.45998000       1.42027000      13.71042000       0.10978600      -0.06752500       0.09845400
C        1.22995000       3.55073000      13.71039000      -0.00498200       0.12831400       0.09819000
C       -0.00004000       5.68113000      13.70058000       0.00088900       0.00094700      -0.04617300
C        4.92002000       1.42027000      13.71042000      -0.11036000      -0.06850800       0.09847000
C        3.69000000       3.55073000      13.70268000      -0.00116000      -0.00181700      -0.06109300
C        2.46001000       5.68113000      13.71036000      -0.11607900      -0.05916600       0.09794000
C        0.00000000       0.00000000      10.26874000      -0.00118500      -0.32865300      -0.20459900
C       -1.22999000       2.13040000      10.26867000      -0.28631100       0.16603200      -0.20473900
C       -2.46001000       4.26087000      10.29776000      -0.03487000      -0.02130400      -0.02296500
C        2.45998000       0.00000000      10.29631000       0.19847900      -0.11276700      -0.06149200
C        1.22999000       2.13040000      10.26867000       0.28605500       0.16688200      -0.20469300
C       -0.00004000       4.26087000      10.29629000       0.00121400       0.22725900      -0.06162000
C        4.92002000       0.00000000      10.29631000      -0.19911200      -0.11381300      -0.06137900
C        3.69004000       2.13040000      10.29773000      -0.00150200       0.04035800      -0.02309800
C        2.46001000       4.26087000      10.29776000       0.03279400      -0.02152000      -0.02280800
C        1.22999000       0.71013000      10.26923000       0.28143400      -0.16145000      -0.20692500
C        0.00000000       2.84053000      10.26919000       0.00123400       0.32443700      -0.20689800
C       -1.23002000       4.97100000      10.29771000       0.03973700       0.02104600      -0.02373300
C        3.69004000       0.71013000      10.29771000      -0.00080400      -0.04510100      -0.02377700
C        2.46005000       2.84053000      10.29616000       0.18887500       0.10984000      -0.06169600
C        1.23002000       4.97100000      10.29771000      -0.03900200       0.02004400      -0.02356300
C        6.15001000       0.71013000      10.26923000      -0.27874300      -0.16166800      -0.20688100
C        4.92002000       2.84053000      10.29616000      -0.18915000       0.11063600      -0.06181800
C        3.69000000       4.97100000      10.29620000       0.00117100      -0.22022000      -0.06128700
Li       0.00000000       1.42027000      11.87457000       0.00000800       0.00006900       0.01977200
37
Lattice="7.380000114 0.0 0.0 -3.690000057 6.391267579 0.0 0.0 0.0 24.0" Properties=species:S:1:pos:R:3:forces:R:3 stress="-0.00677956466158915 5.855783861903674e-05 6.865660038471585e-08 5.855783861903674e-05 -0.006711457314007513 -8.113961863648235e-07 6.865660038471585e-08 -8.113961863648235e-07 0.00020341702392166126" free_energy=-336.19944015 energy=-336.19801514 pbc="T T T"
C        0.00000000       0.00000000      13.76832000       0.00104600      -0.27050700       0.11288100
C       -1.22999000       2.13040000      13.76833000      -0.23316500       0.13650400       0.11310700
C       -2.46001000       4.26087000      13.69889000      -0.03891000      -0.02432000       0.03980100
C        2.45998000       0.00000000      13.71364000       0.03555300      -0.01984400       0.04812000
C        1.22999000       2.13040000      13.76830000       0.23501600       0.13674300       0.11296000
C       -0.00004000       4.26087000      13.71365000       0.00142700       0.03829000       0.04800200
C        4.92002000       0.00000000      13.71361000      -0.03504700      -0.02088200       0.04786800
C        3.69004000       2.13040000      13.69892000      -0.00128500       0.04672000       0.03996700
C        2.46001000       4.26087000      13.69883000       0.03898800      -0.02511800       0.03941600
C        0.00000000       1.42027000      13.84563000      -0.00101400       0.00153300       0.17539100
C       -1.23002000       3.55073000      13.71993000       0.00526400       0.12209500       0.12034100
C       -2.46001000       5.68113000      13.71986000       0.10891500      -0.05636700       0.12048300
C        2.45998000       1.42027000      13.71992000       0.10514200      -0.06467800       0.12028300
C        1.22995000       3.55073000      13.71987000      -0.00488900       0.12280000       0.11996900
C       -0.00004000       5.68113000      13.69671000       0.00088000       0.00099600       0.07274500
C        4.92002000       1.42027000      13.71992000      -0.10569600      -0.06565400       0.12028700
C        3.69000000       3.55073000      13.69766000      -0.00115200      -0.00178500       0.04825800
C        2.46001000       5.68113000      13.71981000      -0.11139800      -0.05652800       0.12012300
C        0.00000000       0.00000000      10.25016000      -0.00118800      -0.32203500      -0.14449200
C       -1.22999000       2.13040000      10.25008000      -0.28057800       0.16271700      -0.14378300
C       -2.46001000       4.26087000      10.29584000      -0.03468100      -0.02121200      -0.05735100
C        2.45998000       0.00000000      10.29089000       0.19150100      -0.10870200      -0.06849100
C        1.22999000       2.13040000      10.25009000       0.28032300       0.16357100      -0.14369700
C       -0.00004000       4.26087000      10.29085000       0.00121200       0.21917700      -0.06836300
C        4.92002000       0.00000000      10.29090000      -0.19212700      -0.10974400      -0.06832300
C        3.69004000       2.13040000      10.29580000      -0.00150300       0.04015400      -0.05754300
C        2.46001000       4.26087000      10.29586000       0.03260500      -0.02143000      -0.05711700
C        1.22999000       0.71013000      10.25046000       0.27604100      -0.15835400      -0.14446600
C        0.00000000       2.84053000      10.25042000       0.00123400       0.31822700      -0.14428800
C       -1.23002000       4.97100000      10.29574000       0.03927700       0.02075700      -0.05557600
C        3.69004000       0.71013000      10.29573000      -0.00080300      -0.04452200      -0.05552100
C        2.46005000       2.84053000      10.29074000       0.18239900       0.10606500      -0.06626800
C        1.23002000       4.97100000      10.29576000      -0.03854000       0.01975600      -0.05533500
C        6.15001000       0.71013000      10.25047000      -0.27335800      -0.15857800      -0.14439800
C        4.92002000       2.84053000      10.29072000      -0.18266900       0.10686400      -0.06641400
C        3.69000000       4.97100000      10.29081000       0.00117000      -0.21277100      -0.06593600
Li       0.00000000       1.42028000      11.87689000       0.00000600       0.00006000      -0.01263800
37
Lattice="7.380000114 0.0 0.0 -3.690000057 6.391267579 0.0 0.0 0.0 24.0" Properties=species:S:1:pos:R:3:forces:R:3 stress="-0.006698031827877737 5.848918201865202e-05 1.0610565514001541e-07 5.848918201865202e-05 -0.006631154057593899 -6.803244947212751e-07 1.0610565514001541e-07 -6.803244947212751e-07 0.0009473424966356869" free_energy=-336.24480707 energy=-336.24345683 pbc="T T T"
C        0.00000000       0.00000000      13.79348000       0.00098000      -0.27597400       0.03865100
C       -1.22999000       2.13040000      13.79349000      -0.23790900       0.13923500       0.03972200
C       -2.46001000       4.26087000      13.70555000      -0.03836800      -0.02400400       0.09220900
C        2.45998000       0.00000000      13.72429000       0.03584900      -0.01990600       0.09127900
C        1.22999000       2.13040000      13.79344000       0.23971800       0.13952700       0.03955100
C       -0.00004000       4.26087000      13.72428000       0.00140300       0.03854800       0.09078900
C        4.92002000       0.00000000      13.72421000      -0.03532200      -0.02090700       0.09101200
C        3.69004000       2.13040000      13.70562000      -0.00128000       0.04619600       0.09206500
C        2.46001000       4.26087000      13.70544000       0.03842500      -0.02478300       0.09175400
C        0.00000000       1.42027000      13.87115000      -0.00098500       0.00161400       0.07367700
C       -1.23002000       3.55073000      13.73805000       0.00275700       0.11893900       0.07506500
C       -2.46001000       5.68113000      13.73798000       0.10519600      -0.05689900       0.07560200
C        2.45998000       1.42027000      13.73803000       0.10363600      -0.06097300       0.07512700
C        1.22995000       3.55073000      13.73794000      -0.00239300       0.11958100       0.07471100
C       -0.00004000       5.68113000      13.69984000       0.00085300       0.00100300       0.10540700
C        4.92002000       1.42027000      13.73803000      -0.10416200      -0.06194300       0.07511600
C        3.69000000       3.55073000      13.69783000      -0.00113000      -0.00175900       0.10700400
C        2.46001000       5.68113000      13.73788000      -0.10760300      -0.05701600       0.07523000
C        0.00000000       0.00000000      10.22235000      -0.00119400      -0.31999500      -0.03831900
C       -1.22999000       2.13040000      10.22231000      -0.27864700       0.16156100      -0.03876600
C       -2.46001000       4.26087000      10.28942000      -0.03421300      -0.02097500      -0.08845000
C        2.45998000       0.00000000      10.28062000       0.17813900      -0.10084000      -0.10009600
C        1.22999000       2.13040000      10.22233000       0.27840200       0.16242700      -0.03864000
C       -0.00004000       4.26087000      10.28059000       0.00121400       0.20367800      -0.09968000
C        4.92002000       0.00000000      10.28066000      -0.17873700      -0.10187300      -0.09989200
C        3.69004000       2.13040000      10.28936000      -0.00149900       0.03970300      -0.08864700
C        2.46001000       4.26087000      10.28947000       0.03214200      -0.02119100      -0.08814300
C        1.22999000       0.71013000      10.22250000       0.27429000      -0.15789800      -0.03992600
C        0.00000000       2.84053000      10.22247000       0.00124200       0.31665500      -0.03937600
C       -1.23002000       4.97100000      10.28943000       0.03849500       0.02027300      -0.09032400
C        3.69004000       0.71013000      10.28943000      -0.00080400      -0.04343800      -0.09030200
C        2.46005000       2.84053000      10.28066000       0.16946100       0.09866800      -0.10068700
C        1.23002000       4.97100000      10.28949000      -0.03776000       0.01927200      -0.09001900
C        6.15001000       0.71013000      10.22251000      -0.27162700      -0.15814100      -0.03981300
C        4.92002000       2.84053000      10.28062000      -0.16973800       0.09947400      -0.10088300
C        3.69000000       4.97100000      10.28079000       0.00116800      -0.19786900      -0.10117600
Li       0.00000000       1.42029000      11.87845000       0.00000300       0.00002900      -0.03083400
37
Lattice="7.380000114 0.0 0.0 -3.690000057 6.391267579 0.0 0.0 0.0 24.0" Properties=species:S:1:pos:R:3:forces:R:3 stress="-0.006807139648907302 5.858280465554026e-05 9.986414601413215e-08 5.858280465554026e-05 -0.0067403242937147225 -5.492528030777268e-07 9.986414601413215e-08 -5.492528030777268e-07 0.0009275693957248886" free_energy=-336.25215776 energy=-336.25080692 pbc="T T T"
C        0.00000000       0.00000000      13.79285000       0.00097400      -0.27076200       0.06875500
C       -1.22999000       2.13040000      13.79292000      -0.23348800       0.13669800       0.06898500
C       -2.46001000       4.26087000      13.70919000      -0.03797100      -0.02377500       0.08465300
C        2.45998000       0.00000000      13.72747000       0.03575500      -0.01983500       0.08220700
C        1.22999000       2.13040000      13.79286000       0.23529100       0.13699400       0.06884800
C       -0.00004000       4.26087000      13.72745000       0.00140400       0.03841600       0.08166000
C        4.92002000       0.00000000      13.72739000      -0.03522800      -0.02083800       0.08195700
C        3.69004000       2.13040000      13.70924000      -0.00128000       0.04575700       0.08441500
C        2.46001000       4.26087000      13.70906000       0.03803000      -0.02455700       0.08426300
C        0.00000000       1.42027000      13.87211000      -0.00098000       0.00155800       0.03740800
C       -1.23002000       3.55073000      13.73979000       0.00281400       0.12063200       0.06367600
C       -2.46001000       5.68113000      13.73975000       0.10674200      -0.05775100       0.06370900
C        2.45998000       1.42027000      13.73978000       0.10508400      -0.06185900       0.06369000
C        1.22995000       3.55073000      13.73967000      -0.00244900       0.12127000       0.06333000
C       -0.00004000       5.68113000      13.70449000       0.00085000       0.00097300       0.11317300
C        4.92002000       1.42027000      13.73978000      -0.10560700      -0.06282700       0.06369700
C        3.69000000       3.55073000      13.70281000      -0.00113000      -0.00178900       0.10314200
C        2.46001000       5.68113000      13.73963000      -0.10914500      -0.05786400       0.06336500
C        0.00000000       0.00000000      10.22325000      -0.00119500      -0.31650700      -0.04671100
C       -1.22999000       2.13040000      10.22318000      -0.27566300       0.15985100      -0.04659000
C       -2.46001000       4.26087000      10.28592000      -0.03409600      -0.02093900      -0.09317300
C        2.45998000       0.00000000      10.27698000       0.18189500      -0.10297400      -0.08463600
C        1.22999000       2.13040000      10.22321000       0.27542000       0.16071800      -0.04649700
C       -0.00004000       4.26087000      10.27697000       0.00121500       0.20798800      -0.08413200
C        4.92002000       0.00000000      10.27703000      -0.18249600      -0.10401000      -0.08446500
C        3.69004000       2.13040000      10.28585000      -0.00149800       0.03959000      -0.09316200
C        2.46001000       4.26087000      10.28598000       0.03202300      -0.02115300      -0.09289500
C        1.22999000       0.71013000      10.22333000       0.27144300      -0.15622800      -0.04620300
C        0.00000000       2.84053000      10.22333000       0.00124300       0.31337200      -0.04593300
C       -1.23002000       4.97100000      10.28584000       0.03841400       0.02020000      -0.09250100
C        3.69004000       0.71013000      10.28584000      -0.00080600      -0.04329500      -0.09263300
C        2.46005000       2.84053000      10.27697000       0.17338000       0.10096300      -0.08355300
C        1.23002000       4.97100000      10.28590000      -0.03768000       0.01919800      -0.09223900
C        6.15001000       0.71013000      10.22335000      -0.26877800      -0.15647300      -0.04611200
C        4.92002000       2.84053000      10.27693000      -0.17365700       0.10176900      -0.08373200
C        3.69000000       4.97100000      10.27707000       0.00116900      -0.20255800      -0.08363600
Li       0.00000000       1.42029000      11.87686000       0.00000200       0.00004400      -0.00212700
37