37
Lattice="7.380000114 0.0 0.0 -3.690000057 6.391267579 0.0 0.0 0.0 24.0" Properties=species:S:1:pos:R:3:forces:R:3 stress="-0.006962222426158124 5.803355185246253e-05 -7.48981095105991e-08 5.803355185246253e-05 -0.006895163652109634 4.9932073007066075e-08 -7.48981095105991e-08 4.9932073007066075e-08 -0.017007332179391144" free_energy=-333.64951521 energy=-333.6448222 pbc="T T T"
C        0.00000000       0.00000000      13.50000000       0.00123900      -0.41833100       0.46391000
C       -1.22999000       2.13040000      13.50000000      -0.36109000       0.21053300       0.46394500
C       -2.46001000       4.26087000      13.50000000      -0.05057100      -0.03140900       0.13641600
C        2.45998000       0.00000000      13.50000000       0.04277900      -0.02390800       0.15488900
C        1.22999000       2.13040000      13.50000000       0.36325000       0.21073400       0.46390700
C       -0.00004000       4.26087000      13.50000000       0.00156000       0.04631300       0.15489600
C        4.92002000       0.00000000      13.50000000      -0.04206900      -0.02498700       0.15489500
C        3.69004000       2.13040000      13.50000000      -0.00115900       0.06046600       0.13642600
C        2.46001000       4.26087000      13.50000000       0.05090300      -0.03221400       0.13642200
C        0.00000000       1.42027000      13.50000000      -0.00122900       0.00190100       7.72609700
C       -1.23002000       3.55073000      13.50000000       0.03051700       0.15683000       0.22380300
C       -2.46001000       5.68113000      13.50000000       0.15185800      -0.05174900       0.22382700
C        2.45998000       1.42027000      13.50000000       0.12238900      -0.10393000       0.22382500
C        1.22995000       3.55073000      13.50000000      -0.03033600       0.15762000       0.22381300
C       -0.00004000       5.68113000      13.50000000       0.00079000       0.00111800       0.18875700
C        4.92002000       1.42027000      13.50000000      -0.12320600      -0.10491400       0.22382400
C        3.69000000       3.55073000      13.50000000      -0.00125500      -0.00194200       0.21673900
C        2.46001000       5.68113000      13.50000000      -0.15466000      -0.05197900       0.22383300
C        0.00000000       0.00000000      10.50000000      -0.00123100      -0.41457100      -0.50517900
C       -1.22999000       2.13040000      10.50000000      -0.36087100       0.20913800      -0.50518700
C       -2.46001000       4.26087000      10.50000000      -0.03097900      -0.01924600      -0.14208400
C        2.45998000       0.00000000      10.50000000       0.18629400      -0.10552100      -0.10665800
C        1.22999000       2.13040000      10.50000000       0.36053400       0.20999300      -0.50519100
C       -0.00004000       4.26087000      10.50000000       0.00116500       0.21304400      -0.10665700
C        4.92002000       0.00000000      10.50000000      -0.18701000      -0.10656800      -0.10665300
C        3.69004000       2.13040000      10.50000000      -0.00153700       0.03598000      -0.14208700
C        2.46001000       4.26087000      10.50000000       0.02881100      -0.01945600      -0.14209300
C        1.22999000       0.71013000      10.50000000       0.34780600      -0.19966500      -0.53175300
C        0.00000000       2.84053000      10.50000000       0.00127300       0.40103100      -0.53176200
C       -1.23002000       4.97100000      10.50000000       0.04477900       0.02372300      -0.20260200
C        3.69004000       0.71013000      10.50000000      -0.00077000      -0.05071200      -0.20259200
C        2.46005000       2.84053000      10.50000000       0.16575500       0.09659500      -0.16328900
C        1.23002000       4.97100000      10.50000000      -0.04396600       0.02272700      -0.20260300
C        6.15001000       0.71013000      10.50000000      -0.34504000      -0.19988600      -0.53173500
C        4.92002000       2.84053000      10.50000000      -0.16597200       0.09739200      -0.16329600
C        3.69000000       4.97100000      10.50000000       0.00120900      -0.19415800      -0.16331300
Li       0.00000000       1.42027000      12.00000000       0.00004000       0.00000600      -6.78549100
37
Lattice="7.380000114 0.0 0.0 -3.690000057 6.391267579 0.0 0.0 0.0 24.0" Properties=species:S:1:pos:R:3:forces:R:3 stress="-0.0078252109269575 5.661672928088704e-05 2.0596980115414753e-07 5.661672928088704e-05 -0.007760480235812963 -4.556301661894778e-07 2.0596980115414753e-07 -4.556301661894778e-07 -0.006858838068996994" free_energy=-333.85569986 energy=-333.85133193 pbc="T T T"
C        0.00000000       0.00000000      13.52238000       0.00109500       0.26689600       2.15928300
C       -1.22999000       2.13040000      13.52238000       0.23205900      -0.13195900       2.15873300
C       -2.46001000       4.26087000      13.50658000      -0.02246000      -0.01513900      -0.11577400
C        2.45998000       0.00000000      13.50747000       0.03649200      -0.02024200       0.31605600
C        1.22999000       2.13040000      13.52238000      -0.23033300      -0.13185500       2.15850400
C       -0.00004000       4.26087000      13.50747000       0.00155300       0.03909700       0.31597100
C        4.92002000       0.00000000      13.50747000      -0.03579200      -0.02132700       0.31595700
C        3.69004000       2.13040000      13.50658000      -0.00116400       0.02803400      -0.11571600
C        2.46001000       4.26087000      13.50658000       0.02261300      -0.01585200      -0.11593400
C        0.00000000       1.42027000      13.87273000      -0.00062700       0.00118900      -4.50546800
C       -1.23002000       3.55073000      13.51080000      -0.02950000       0.09205500       0.07415500
C       -2.46001000       5.68113000      13.51080000       0.06559300      -0.07118800       0.07430400
C        2.45998000       1.42027000      13.51080000       0.09619300      -0.01950900       0.07417300
C        1.22995000       3.55073000      13.51080000       0.02946900       0.09241500       0.07358100
C       -0.00004000       5.68113000      13.50911000       0.00080500       0.00111100       0.17516100
C        4.92002000       1.42027000      13.51080000      -0.09705700      -0.02047500       0.07417200
C        3.69000000       3.55073000      13.51046000      -0.00123200      -0.00192000       0.22437200
C        2.46001000       5.68113000      13.51080000      -0.06813800      -0.07109000       0.07379700
C        0.00000000       0.00000000      10.47563000      -0.00121600      -1.01693300      -0.96548600
C       -1.22999000       2.13040000      10.47563000      -0.88244800       0.51024800      -0.96470500
C       -2.46001000       4.26087000      10.49315000      -0.01707700      -0.01119800      -0.16056100
C        2.45998000       0.00000000      10.49485000       0.21526400      -0.12221200      -0.21959800
C        1.22999000       2.13040000      10.47563000       0.88214400       0.51111800      -0.96467300
C       -0.00004000       4.26087000      10.49485000       0.00116900       0.24651100      -0.21960000
C        4.92002000       0.00000000      10.49485000      -0.21595200      -0.12325100      -0.21951600
C        3.69004000       2.13040000      10.49315000      -0.00152500       0.01996700      -0.16058200
C        2.46001000       4.26087000      10.49315000       0.01492300      -0.01140600      -0.16045600
C        1.22999000       0.71013000      10.47435000       0.85466300      -0.49270000      -0.93119600
C        0.00000000       2.84053000      10.47435000       0.00128200       0.98667100      -0.93068300
C       -1.23002000       4.97100000      10.49023000       0.03036400       0.01543000      -0.12208400
C        3.69004000       0.71013000      10.49023000      -0.00075900      -0.03399700      -0.12197400
C        2.46005000       2.84053000      10.49212000       0.18665200       0.10865400      -0.18492300
C        1.23002000       4.97100000      10.49023000      -0.02953100       0.01443100      -0.12198100
C        6.15001000       0.71013000      10.47435000      -0.85189700      -0.49291800      -0.93115500
C        4.92002000       2.84053000      10.49212000      -0.18685000       0.10945900      -0.18496600
C        3.69000000       4.97100000      10.49212000       0.00121900      -0.21816600      -0.18507500
Li       0.00000000       1.42027000      11.67265000       0.00000300       0.00005000       4.33388700
37
Lattice="7.380000114 0.0 0.0 -3.690000057 6.391267579 0.0 0.0 0.0 24.0" Properties=species:S:1:pos:R:3:forces:R:3 stress="-0.007224278428317458 5.708484246532828e-05 -4.369056388118281e-08 5.708484246532828e-05 -0.00715935425039002 -1.93486782902381e-07 -4.369056388118281e-08 -1.93486782902381e-07 -0.008219437126366538" free_energy=-334.9755967 energy=-334.97112784 pbc="T T T"
C        0.00000000       0.00000000      13.58357000       0.00114300      -0.24027200       0.49312900
C       -1.22999000       2.13040000      13.58355000      -0.20689200       0.12135200       0.49410400
C       -2.46001000       4.26087000      13.50330000      -0.05386400      -0.03325200       0.05095600
C        2.45998000       0.00000000      13.51643000       0.04124200      -0.02298300       0.15979300
C        1.22999000       2.13040000      13.58354000       0.20887600       0.12155000       0.49374500
C       -0.00004000       4.26087000      13.51643000       0.00154400       0.04462100       0.15935100
C        4.92002000       0.00000000      13.51643000      -0.04052100      -0.02404200       0.15941000
C        3.69004000       2.13040000      13.50330000      -0.00116400       0.06430200       0.05097900
C        2.46001000       4.26087000      13.50330000       0.05410700      -0.03401100       0.05037200
C        0.00000000       1.42027000      13.74506000      -0.00101700       0.00175600      -0.73690000
C       -1.23002000       3.55073000      13.51290000       0.02527600       0.07294600       0.44049100
C       -2.46001000       5.68113000      13.51290000       0.07636300      -0.01419800       0.44075400
C        2.45998000       1.42027000      13.51290000       0.05228500      -0.05733300       0.44050200
C        1.22995000       3.55073000      13.51288000      -0.02516500       0.07353800       0.44005700
C       -0.00004000       5.68113000      13.51407000       0.00080000       0.00108500       0.06336800
C        4.92002000       1.42027000      13.51290000      -0.05308200      -0.05829600       0.44048300
C        3.69000000       3.55073000      13.51681000      -0.00124800      -0.00186100       0.08391300
C        2.46001000       5.68113000      13.51289000      -0.07900100      -0.01428300       0.44032600
C        0.00000000       0.00000000      10.44827000      -0.00120400      -0.67137800      -0.60307700
C       -1.22999000       2.13040000      10.44829000      -0.58313400       0.33743600      -0.60316900
C       -2.46001000       4.26087000      10.48860000      -0.02637300      -0.01655300      -0.14811800
C        2.45998000       0.00000000      10.48863000       0.20847900      -0.11828600      -0.26162900
C        1.22999000       2.13040000      10.44829000       0.58285400       0.33830300      -0.60308000
C       -0.00004000       4.26087000      10.48863000       0.00118600       0.23869500      -0.26146100
C        4.92002000       0.00000000      10.48863000      -0.20913200      -0.11932700      -0.26146000
C        3.69004000       2.13040000      10.48860000      -0.00151500       0.03073200      -0.14810800
C        2.46001000       4.26087000      10.48860000       0.02425200      -0.01676600      -0.14788900
C        1.22999000       0.71013000      10.44796000       0.55414700      -0.31967600      -0.58839500
C        0.00000000       2.84053000      10.44797000       0.00125700       0.64006700      -0.58825800
C       -1.23002000       4.97100000      10.48677000       0.04121400       0.02175800      -0.13549700
C        3.69004000       0.71013000      10.48677000      -0.00078600      -0.04650000      -0.13540300
C        2.46005000       2.84053000      10.48688000       0.17188800       0.10013800      -0.24280300
C        1.23002000       4.97100000      10.48677000      -0.04043500       0.02076000      -0.13526700
C        6.15001000       0.71013000      10.44796000      -0.55143700      -0.31990400      -0.58832900
C        4.92002000       2.84053000      10.48688000      -0.17213700       0.10094100      -0.24292200
C        3.69000000       4.97100000      10.48688000       0.00119000      -0.20096200      -0.24311100
Li       0.00000000       1.42027000      11.79545000       0.00000800      -0.00010100       1.77314300
37
Lattice="7.380000114 0.0 0.0 -3.690000057 6.391267579 0.0 0.0 0.0 24.0" Properties=species:S:1:pos:R:3:forces:R:3 stress="-0.006719103162686719 5.730329528473419e-05 -1.2483018251766519e-08 5.730329528473419e-05 -0.006653373830082042 4.743546935671276e-07 -1.2483018251766519e-08 4.743546935671276e-07 -0.00774735434212123" free_energy=-335.22037691 energy=-335.21640841 pbc="T T T"
C        0.00000000       0.00000000      13.59621000       0.00111900      -0.28138900       0.48710500
C       -1.22999000       2.13040000      13.59625000      -0.24260400       0.14204100       0.48760700
C       -2.46001000       4.26087000      13.50661000      -0.05107800      -0.03164500       0.25376600
C        2.45998000       0.00000000      13.52279000       0.03922400      -0.02187400       0.29404200
C        1.22999000       2.13040000      13.59623000       0.24457300       0.14226300       0.48739900
C       -0.00004000       4.26087000      13.52277000       0.00152100       0.04233100       0.29351300
C        4.92002000       0.00000000      13.52277000      -0.03852100      -0.02291800       0.29372600
C        3.69004000       2.13040000      13.50661000      -0.00117300       0.06105100       0.25366000
C        2.46001000       4.26087000      13.50658000       0.05130900      -0.03240600       0.25328700
C        0.00000000       1.42027000      13.73371000      -0.00101600       0.00169800       0.06535100
C       -1.23002000       3.55073000      13.53515000       0.01908200       0.10201500       0.22573400
C       -2.46001000       5.68113000      13.53517000       0.09809100      -0.03400300       0.22564500
C        2.45998000       1.42027000      13.53515000       0.08046100      -0.06661800       0.22558100
C        1.22995000       3.55073000      13.53512000      -0.01893400       0.10264600       0.22518900
C       -0.00004000       5.68113000      13.51630000       0.00080400       0.00103000       0.03596700
C        4.92002000       1.42027000      13.53515000      -0.08121300      -0.06758000       0.22562800
C        3.69000000       3.55073000      13.51981000      -0.00124300      -0.00188100       0.02536500
C        2.46001000       5.68113000      13.53514000      -0.10071200      -0.03411600       0.22515700
C        0.00000000       0.00000000      10.42291000      -0.00119200      -0.53599900      -0.38581300
C       -1.22999000       2.13040000      10.42292000      -0.46581200       0.26964100      -0.38619500
C       -2.46001000       4.26087000      10.48191000      -0.02999900      -0.01863200      -0.19094200
C        2.45998000       0.00000000      10.47645000       0.19378200      -0.10989600      -0.25119600
C        1.22999000       2.13040000      10.42292000       0.46556800       0.27051300      -0.38609900
C       -0.00004000       4.26087000      10.47646000       0.00120400       0.22176700      -0.25079800
C        4.92002000       0.00000000      10.47646000      -0.19439900      -0.11093700      -0.25098000
C        3.69004000       2.13040000      10.48191000      -0.00150200       0.03487800      -0.19070700
C        2.46001000       4.26087000      10.48193000       0.02791100      -0.01884900      -0.19065400
C        1.22999000       0.71013000      10.42315000       0.44096500      -0.25420800      -0.38928000
C        0.00000000       2.84053000      10.42317000       0.00124000       0.50921200      -0.38947700
C       -1.23002000       4.97100000      10.48051000       0.04383300       0.02329000      -0.18722800
C        3.69004000       0.71013000      10.48052000      -0.00079900      -0.04953600      -0.18727000
C        2.46005000       2.84053000      10.47547000       0.15988500       0.09310100      -0.24330100
C        1.23002000       4.97100000      10.48052000      -0.04308800       0.02229400      -0.18692900
C        6.15001000       0.71013000      10.42316000      -0.43829600      -0.25444100      -0.38920100
C        4.92002000       2.84053000      10.47546000      -0.16016300       0.09390600      -0.24349100
C        3.69000000       4.97100000      10.47545000       0.00117300      -0.18682800      -0.24352600
Li       0.00000000       1.42026000      11.86120000      -0.00000100       0.00008100       0.35936200
37
Lattice="7.380000114 0.0 0.0 -3.690000057 6.391267579 0.0 0.0 0.0 24.0" Properties=species:S:1:pos:R:3:forces:R:3 stress="-0.00655088825023504 5.775892545092367e-05 -3.744905475529955e-08 5.775892545092367e-05 -0.006483036804527562 3.058339471682796e-07 -3.744905475529955e-08 3.058339471682796e-07 -0.00682677543661733" free_energy=-335.47417957 energy=-335.47191181 pbc="T T T"
C        0.00000000       0.00000000      13.63862000       0.00100500      -0.34223000       0.17172300
C       -1.22999000       2.13040000      13.63873000      -0.29543000       0.17249900       0.17011600
C       -2.46001000       4.26087000      13.52973000      -0.05380400      -0.03305100       0.17977100
C        2.45998000       0.00000000      13.54977000       0.04603400      -0.02593000       0.16193800
C        1.22999000       2.13040000      13.63868000       0.29730900       0.17280300       0.16993200
C       -0.00004000       4.26087000      13.54969000       0.00146400       0.05024600       0.16175000
C        4.92002000       0.00000000      13.54972000      -0.04536700      -0.02692700       0.16161700
C        3.69004000       2.13040000      13.52973000      -0.00120700       0.06396600       0.17936100
C        2.46001000       4.26087000      13.52965000       0.05395200      -0.03380700       0.17922900
C        0.00000000       1.42027000      13.74323000      -0.00098500       0.00154100       0.89379900
C       -1.23002000       3.55073000      13.56347000       0.02023100       0.09763600       0.25842600
C       -2.46001000       5.68113000      13.56349000       0.09494600      -0.03082400       0.25785900
C        2.45998000       1.42027000      13.56346000       0.07622800      -0.06579700       0.25850500
C        1.22995000       3.55073000      13.56339000      -0.01997900       0.09822000       0.25793200
C       -0.00004000       5.68113000      13.51994000       0.00080300       0.00091500       0.28526500
C        4.92002000       1.42027000      13.56347000      -0.07686700      -0.06675100       0.25853000
C        3.69000000       3.55073000      13.52278000      -0.00118400      -0.00198000       0.29026700
C        2.46001000       5.68113000      13.56341000      -0.09741400      -0.03091000       0.25740200
C        0.00000000       0.00000000      10.38144000      -0.00116100      -0.44519900      -0.23823900
C       -1.22999000       2.13040000      10.38141000      -0.38720600       0.22426100      -0.23796700
C       -2.46001000       4.26087000      10.46324000      -0.03288100      -0.02019500      -0.24447600
C        2.45998000       0.00000000      10.45048000       0.17371500      -0.09851200      -0.18313400
C        1.22999000       2.13040000      10.38143000       0.38705500       0.22514700      -0.23786700
C       -0.00004000       4.26087000      10.45052000       0.00124800       0.19852300      -0.18304600
C        4.92002000       0.00000000      10.45051000      -0.17423000      -0.09954300      -0.18290200
C        3.69004000       2.13040000      10.46326000      -0.00145400       0.03804800      -0.24412800
C        2.46001000       4.26087000      10.46328000       0.03088000      -0.02041900      -0.24413700
C        1.22999000       0.71013000      10.38156000       0.36822100      -0.21151700      -0.24004000
C        0.00000000       2.84053000      10.38156000       0.00119900       0.42474200      -0.23976800
C       -1.23002000       4.97100000      10.46225000       0.04420800       0.02367800      -0.24082400
C        3.69004000       0.71013000      10.46226000      -0.00083900      -0.05032900      -0.24091900
C        2.46005000       2.84053000      10.45042000       0.14528200       0.08484100      -0.17630000
C        1.23002000       4.97100000      10.46229000      -0.04355800       0.02267700      -0.24047000
C        6.15001000       0.71013000      10.38157000      -0.36566200      -0.21176900      -0.23993400
C        4.92002000       2.84053000      10.45039000      -0.14565300       0.08564700      -0.17654000
C        3.69000000       4.97100000      10.45037000       0.00112400      -0.16986800      -0.17583600
Li       0.00000000       1.42027000      11.91082000      -0.00001800       0.00016900      -0.58689300
37
Lattice="7.380000114 0.0 0.0 -3.690000057 6.391267579 0.0 0.0 0.0 24.0" Properties=species:S:1:pos:R:3:forces:R:3 stress="-0.006417138951176488 5.78213405421825e-05 -1.2483018251766519e-08 5.78213405421825e-05 -0.00635074177709534 -1.1297131517848697e-06 -1.2483018251766519e-08 -1.1297131517848697e-06 -0.0046778925011761105" free_energy=-335.69883009 energy=-335.69704115 pbc="T T T"
C        0.00000000       0.00000000      13.68167000       0.00088200      -0.34151600       0.08429100
C       -1.22999000       2.13040000      13.68171000      -0.29465900       0.17197700       0.08511300
C       -2.46001000       4.26087000      13.55338000      -0.05206900      -0.03197100       0.21563100
C        2.45998000       0.00000000      13.57635000       0.04362600      -0.02449800       0.15437900
C        1.22999000       2.13040000      13.68163000       0.29644500       0.17237200       0.08492300
C       -0.00004000       4.26087000      13.57623000       0.00142300       0.04753100       0.15465600
C        4.92002000       0.00000000      13.57625000      -0.04294200      -0.02543400       0.15405100
C        3.69004000       2.13040000      13.55335000      -0.00120500       0.06196800       0.21609100
C        2.46001000       4.26087000      13.55323000       0.05217100      -0.03270200       0.21509300
C        0.00000000       1.42027000      13.78816000      -0.00091800       0.00080900       0.61936800
C       -1.23002000       3.55073000      13.59894000       0.01689600       0.09642900       0.12944800
C       -2.46001000       5.68113000      13.59892000       0.09239400      -0.03334200       0.12956500
C        2.45998000       1.42027000      13.59893000       0.07700500      -0.06182200       0.12935900
C        1.22995000       3.55073000      13.59879000      -0.01660900       0.09689900       0.12903400
C       -0.00004000       5.68113000      13.54172000       0.00076100       0.00110900       0.24576600
C        4.92002000       1.42027000      13.59894000      -0.07758700      -0.06277000       0.12937200
C        3.69000000       3.55073000      13.54488000      -0.00115100      -0.00170200       0.26099500
C        2.46001000       5.68113000      13.59878000      -0.09471500      -0.03335600       0.12916200
C        0.00000000       0.00000000      10.33679000      -0.00116700      -0.41767500      -0.05694500
C       -1.22999000       2.13040000      10.33676000      -0.36325100       0.21040100      -0.05674200
C       -2.46001000       4.26087000      10.43590000      -0.03338600      -0.02048600      -0.19107200
C        2.45998000       0.00000000      10.42236000       0.15250900      -0.08619100      -0.17272100
C        1.22999000       2.13040000      10.33679000       0.36312000       0.21130500      -0.05658300
C       -0.00004000       4.26087000      10.42244000       0.00127200       0.17410000      -0.17286000
C        4.92002000       0.00000000      10.42242000      -0.15296500      -0.08720800      -0.17249800
C        3.69004000       2.13040000      10.43595000      -0.00144900       0.03876600      -0.19156000
C        2.46001000       4.26087000      10.43598000       0.03139600      -0.02070900      -0.19069700
C        1.22999000       0.71013000      10.33694000       0.34666200      -0.19978600      -0.06747600
C        0.00000000       2.84053000      10.33696000       0.00121000       0.40049300      -0.06692100
C       -1.23002000       4.97100000      10.43558000       0.04287700       0.02302600      -0.20713800
C        3.69004000       0.71013000      10.43558000      -0.00085700      -0.04892600      -0.20680000
C        2.46005000       2.84053000      10.42348000       0.12676800       0.07418500      -0.18425700
C        1.23002000       4.97100000      10.43567000      -0.04224600       0.02201700      -0.20675400
C        6.15001000       0.71013000      10.33697000      -0.34414600      -0.20007400      -0.06731500
C        4.92002000       2.84053000      10.42343000      -0.12718500       0.07500600      -0.18450300
C        3.69000000       4.97100000      10.42345000       0.00111700      -0.14839400      -0.18405000
Li       0.00000000       1.42028000      11.92467000      -0.00002500       0.00017000      -0.62940700
37
Lattice="7.380000114 0.0 0.0 -3.690000057 6.391267579 0.0 0.0 0.0 24.0" Properties=species:S:1:pos:R:3:forces:R:3 stress="-0.006533848930321377 5.8064759398091954e-05 6.241509125883259e-08 5.8064759398091954e-05 -0.006467763831696526 4.3066412968594477e-07 6.241509125883259e-08 4.3066412968594477e-07 -0.0024555782108688726" free_energy=-335.90342347 energy=-335.90166154 pbc="T T T"
C        0.00000000       0.00000000      13.72723000       0.00071600      -0.32581800       0.05772500
C       -1.22999000       2.13040000      13.72736000      -0.28125200       0.16437100       0.05823300
C       -2.46001000       4.26087000      13.58848000      -0.05314300      -0.03260300       0.19263700
C        2.45998000       0.00000000      13.60962000       0.03884900      -0.02163600       0.20560500
C        1.22999000       2.13040000      13.72724000       0.28289700       0.16487700       0.05809700
C       -0.00004000       4.26087000      13.60950000       0.00137500       0.04175600       0.20512600
C        4.92002000       0.00000000      13.60946000      -0.03812800      -0.02249900       0.20539800
C        3.69004000       2.13040000      13.58849000      -0.00120200       0.06327100       0.19276200
C        2.46001000       4.26087000      13.58823000       0.05322400      -0.03330600       0.19220100
C        0.00000000       1.42027000      13.84346000      -0.00083500       0.00139400       0.05387900
C       -1.23002000       3.55073000      13.63524000       0.01917600       0.08150800       0.11206000
C       -2.46001000       5.68113000      13.63522000       0.08089400      -0.02400100       0.11206400
C        2.45998000       1.42027000      13.63522000       0.06298200      -0.05642900       0.11188500
C        1.22995000       3.55073000      13.63500000      -0.01888900       0.08182000       0.11164600
C       -0.00004000       5.68113000      13.57753000       0.00072700       0.00109900       0.10618000
C        4.92002000       1.42027000      13.63523000      -0.06350700      -0.05735600       0.11190800
C        3.69000000       3.55073000      13.58277000      -0.00113100      -0.00178900       0.16890100
C        2.46001000       5.68113000      13.63500000      -0.08303300      -0.02391700       0.11165600
C        0.00000000       0.00000000      10.29733000      -0.00119800      -0.40166600      -0.05332500
C       -1.22999000       2.13040000      10.29732000      -0.34935400       0.20237300      -0.05410500
C       -2.46001000       4.26087000      10.40061000      -0.03382700      -0.02089900      -0.14815500
C        2.45998000       0.00000000      10.38589000       0.14772900      -0.08323100      -0.17758600
C        1.22999000       2.13040000      10.29737000       0.34920100       0.20330300      -0.05401700
C       -0.00004000       4.26087000      10.38596000       0.00126400       0.16841500      -0.17707100
C        4.92002000       0.00000000      10.38599000      -0.14818400      -0.08424000      -0.17736500
C        3.69004000       2.13040000      10.40063000      -0.00145900       0.03932300      -0.14820500
C        2.46001000       4.26087000      10.40075000       0.03181400      -0.02110000      -0.14787400
C        1.22999000       0.71013000      10.29667000       0.33803900      -0.19466300      -0.03919200
C        0.00000000       2.84053000      10.29675000       0.00124600       0.39037200      -0.03968000
C       -1.23002000       4.97100000      10.39917000       0.04165700       0.02206900      -0.13621100
C        3.69004000       0.71013000      10.39921000      -0.00085900      -0.04705000      -0.13636500
C        2.46005000       2.84053000      10.38669000       0.12890700       0.07539100      -0.16300000
C        1.23002000       4.97100000      10.39932000      -0.04099600       0.02105500      -0.13593400
C        6.15001000       0.71013000      10.29672000      -0.33550300      -0.19498300      -0.03912100
C        4.92002000       2.84053000      10.38660000      -0.12931100       0.07623100      -0.16323100
C        3.69000000       4.97100000      10.38668000       0.00113400      -0.15149700      -0.16295500
Li      -0.00000000       1.42030000      11.91004000      -0.00002200       0.00005500      -0.21457000
37