37
Lattice="7.380000114 0.0 0.0 -3.690000057 6.391267579 0.0 0.0 0.0 24.0" Properties=species:S:1:pos:R:3:forces:R:3 stress="-0.00698280068174616 5.880125747494618e-05 1.8724527377649774e-08 5.880125747494618e-05 -0.006914918028493055 -6.241509125883259e-09 1.8724527377649774e-08 -6.241509125883259e-09 0.0033470716838461556" free_energy=-336.29875564 energy=-336.29689594 pbc="T T T"
C        0.00000000       0.00000000      13.90000000       0.00117400      -0.28341600       0.00061000
C       -1.22999000       2.13040000      13.90000000      -0.24425200       0.14289300       0.00025000
C       -2.46001000       4.26087000      13.90000000      -0.03777000      -0.02365600      -0.02017500
C        2.45998000       0.00000000      13.90000000       0.03325300      -0.01850900       0.00285200
C        1.22999000       2.13040000      13.90000000       0.24629700       0.14310200       0.00025500
C       -0.00004000       4.26087000      13.90000000       0.00149900       0.03569300       0.00257000
C        4.92002000       0.00000000      13.90000000      -0.03265000      -0.01956800       0.00284900
C        3.69004000       2.13040000      13.90000000      -0.00123000       0.04548300      -0.02041800
C        2.46001000       4.26087000      13.90000000       0.03799700      -0.02447500      -0.02018000
C        0.00000000       1.42027000      13.90000000      -0.00115400       0.00108300       1.35651400
C       -1.23002000       3.55073000      13.90000000      -0.00307700       0.14673500      -0.01693700
C       -2.46001000       5.68113000      13.90000000       0.12572100      -0.07557100      -0.01675900
C        2.45998000       1.42027000      13.90000000       0.13033100      -0.06985200      -0.01698400
C        1.22995000       3.55073000      13.90000000       0.00336000       0.14752000      -0.01693500
C       -0.00004000       5.68113000      13.90000000       0.00083400       0.00103400      -0.03103200
C        4.92002000       1.42027000      13.90000000      -0.13103000      -0.07085200      -0.01698300
C        3.69000000       3.55073000      13.90000000      -0.00121200      -0.00172000      -0.00064200
C        2.46001000       5.68113000      13.90000000      -0.12841200      -0.07579500      -0.01675800
C        0.00000000       0.00000000      10.10000000      -0.00119000      -0.17527000      -0.01561900
C       -1.22999000       2.13040000      10.10000000      -0.15341900       0.08925900      -0.01526900
C       -2.46001000       4.26087000      10.10000000      -0.02917500      -0.01796900       0.00293800
C        2.45998000       0.00000000      10.10000000       0.17517400      -0.09927900       0.04235700
C        1.22999000       2.13040000      10.10000000       0.15314900       0.09010300      -0.01526600
C       -0.00004000       4.26087000      10.10000000       0.00121100       0.20043400       0.04260400
C        4.92002000       0.00000000      10.10000000      -0.17582400      -0.10032800       0.04236000
C        3.69004000       2.13040000      10.10000000      -0.00150700       0.03382200       0.00321900
C        2.46001000       4.26087000      10.10000000       0.02709200      -0.01818400       0.00293800
C        1.22999000       0.71013000      10.10000000       0.15276300      -0.08776300      -0.01198400
C        0.00000000       2.84053000      10.10000000       0.00123900       0.17632300      -0.01172300
C       -1.23002000       4.97100000      10.10000000       0.03117800       0.01616900       0.00226700
C        3.69004000       0.71013000      10.10000000      -0.00080500      -0.03522700       0.00221500
C        2.46005000       2.84053000      10.10000000       0.17168700       0.10000100       0.04084800
C        1.23002000       4.97100000      10.10000000      -0.03044400       0.01516700       0.00226200
C        6.15001000       0.71013000      10.10000000      -0.15004600      -0.08797800      -0.01195400
C        4.92002000       2.84053000      10.10000000      -0.17195500       0.10079600       0.04084300
C        3.69000000       4.97100000      10.10000000       0.00117300      -0.20027000       0.04067200
Li       0.00000000       1.42027000      12.00000000       0.00002100       0.00006500      -1.35580600
37
Lattice="7.380000114 0.0 0.0 -3.690000057 6.391267579 0.0 0.0 0.0 24.0" Properties=species:S:1:pos:R:3:forces:R:3 stress="-0.007036402762119246 5.881374049319794e-05 6.865660038471585e-08 5.881374049319794e-05 -0.006968545074902644 -3.120754562941629e-07 6.865660038471585e-08 -3.120754562941629e-07 0.004309687153312879" free_energy=-336.39533637 energy=-336.39369632 pbc="T T T"
C        0.00000000       0.00000000      13.90003000       0.00113500      -0.23731300       0.33825300
C       -1.22999000       2.13040000      13.90001000      -0.20437400       0.11985700       0.33803800
C       -2.46001000       4.26087000      13.89903000      -0.03127900      -0.01989000      -0.07599000
C        2.45998000       0.00000000      13.90014000       0.03231700      -0.01797800       0.00376600
C        1.22999000       2.13040000      13.90001000       0.20634000       0.12006200       0.33798100
C       -0.00004000       4.26087000      13.90012000       0.00146700       0.03464700       0.00361300
C        4.92002000       0.00000000      13.90014000      -0.03177100      -0.01903600       0.00375200
C        3.69004000       2.13040000      13.89902000      -0.00126100       0.03796300      -0.07622900
C        2.46001000       4.26087000      13.89903000       0.03144600      -0.02070800      -0.07603700
C        0.00000000       1.42027000      13.96544000      -0.00110100       0.00163900      -0.14983600
C       -1.23002000       3.55073000      13.89918000      -0.00307700       0.14912800      -0.03777900
C       -2.46001000       5.68113000      13.89919000       0.12783300      -0.07683800      -0.03747700
C        2.45998000       1.42027000      13.89918000       0.13247300      -0.07105700      -0.03775700
C        1.22995000       3.55073000      13.89918000       0.00341300       0.14990400      -0.03796200
C       -0.00004000       5.68113000      13.89850000       0.00086200       0.00099300       0.00236600
C        4.92002000       1.42027000      13.89918000      -0.13311300      -0.07205600      -0.03776000
C        3.69000000       3.55073000      13.89997000      -0.00118300      -0.00174800      -0.00500100
C        2.46001000       5.68113000      13.89919000      -0.13046000      -0.07705300      -0.03765100
C        0.00000000       0.00000000      10.09925000      -0.00119800      -0.19724500      -0.03474900
C       -1.22999000       2.13040000      10.09926000      -0.17245200       0.10023400      -0.03450200
C       -2.46001000       4.26087000      10.10014000      -0.02992500      -0.01840500       0.02344600
C        2.45998000       0.00000000      10.10204000       0.18505300      -0.10498700       0.01630400
C        1.22999000       2.13040000      10.09926000       0.17216500       0.10108000      -0.03448900
C       -0.00004000       4.26087000      10.10206000       0.00120000       0.21184100       0.01653300
C        4.92002000       0.00000000      10.10204000      -0.18572000      -0.10603300       0.01631500
C        3.69004000       2.13040000      10.10016000      -0.00151400       0.03467400       0.02360500
C        2.46001000       4.26087000      10.10014000       0.02782300      -0.01861800       0.02346200
C        1.22999000       0.71013000      10.09942000       0.17152300      -0.09862000      -0.03374200
C        0.00000000       2.84053000      10.09943000       0.00124900       0.19797200      -0.03348300
C       -1.23002000       4.97100000      10.10011000       0.03222100       0.01674700       0.02425700
C        3.69004000       0.71013000      10.10011000      -0.00079400      -0.03643200       0.02428400
C        2.46005000       2.84053000      10.10197000       0.18106600       0.10537300       0.01571800
C        1.23002000       4.97100000      10.10011000      -0.03146500       0.01574500       0.02426700
C        6.15001000       0.71013000      10.09942000      -0.16878800      -0.09883500      -0.03372000
C        4.92002000       2.84053000      10.10197000      -0.18131400       0.10616900       0.01571700
C        3.69000000       4.97100000      10.10196000       0.00118400      -0.21111200       0.01534900
Li       0.00000000       1.42027000      11.93459000       0.00001800      -0.00006400      -0.45286200
37
Lattice="7.380000114 0.0 0.0 -3.690000057 6.391267579 0.0 0.0 0.0 24.0" Properties=species:S:1:pos:R:3:forces:R:3 stress="-0.007038225282784004 5.88699140753309e-05 1.8724527377649774e-08 5.88699140753309e-05 -0.006970380078585654 -5.055622391965439e-07 1.8724527377649774e-08 -5.055622391965439e-07 0.004300686897153356" free_energy=-336.41437057 energy=-336.41285143 pbc="T T T"
C        0.00000000       0.00000000      13.91549000       0.00112300      -0.25573900       0.07289400
C       -1.22999000       2.13040000      13.91546000      -0.22037200       0.12911200       0.07295800
C       -2.46001000       4.26087000      13.89555000      -0.03462700      -0.02181600      -0.05885100
C        2.45998000       0.00000000      13.90031000       0.03162900      -0.01757700      -0.02637500
C        1.22999000       2.13040000      13.91546000       0.22232700       0.12932300       0.07285900
C       -0.00004000       4.26087000      13.90029000       0.00145300       0.03387900      -0.02661800
C        4.92002000       0.00000000      13.90031000      -0.03111100      -0.01863400      -0.02650900
C        3.69004000       2.13040000      13.89553000      -0.00127400       0.04183300      -0.05897200
C        2.46001000       4.26087000      13.89555000       0.03476700      -0.02263600      -0.05905400
C        0.00000000       1.42027000      13.95859000      -0.00109600       0.00147900       0.15257000
C       -1.23002000       3.55073000      13.89746000      -0.00305200       0.13883400       0.05293500
C       -2.46001000       5.68113000      13.89748000       0.11894200      -0.07171100       0.05325700
C        2.45998000       1.42027000      13.89746000       0.12358200      -0.06589400       0.05294700
C        1.22995000       3.55073000      13.89745000       0.00341600       0.13960800       0.05283200
C       -0.00004000       5.68113000      13.89861000       0.00087500       0.00099100      -0.03761500
C        4.92002000       1.42027000      13.89746000      -0.12419300      -0.06689400       0.05294500
C        3.69000000       3.55073000      13.89974000      -0.00117100      -0.00175500      -0.04765300
C        2.46001000       5.68113000      13.89747000      -0.12154100      -0.07192400       0.05315100
C        0.00000000       0.00000000      10.09766000      -0.00120000      -0.20488000      -0.04145600
C       -1.22999000       2.13040000      10.09769000      -0.17907000       0.10406200      -0.04122700
C       -2.46001000       4.26087000      10.10121000      -0.03020800      -0.01856600       0.02452400
C        2.45998000       0.00000000      10.10279000       0.18827600      -0.10684100       0.01531000
C        1.22999000       2.13040000      10.09769000       0.17878000       0.10490700      -0.04121600
C       -0.00004000       4.26087000      10.10281000       0.00119800       0.21556700       0.01549800
C        4.92002000       0.00000000      10.10279000      -0.18894700      -0.10788800       0.01533300
C        3.69004000       2.13040000      10.10123000      -0.00151700       0.03500500       0.02459800
C        2.46001000       4.26087000      10.10121000       0.02810200      -0.01878000       0.02454400
C        1.22999000       0.71013000      10.09788000       0.17794000      -0.10235400      -0.03995600
C        0.00000000       2.84053000      10.09790000       0.00125000       0.20541400      -0.03973500
C       -1.23002000       4.97100000      10.10122000       0.03248300       0.01689000       0.02474100
C        3.69004000       0.71013000      10.10122000      -0.00079200      -0.03670700       0.02476700
C        2.46005000       2.84053000      10.10269000       0.18414800       0.10714800       0.01489700
C        1.23002000       4.97100000      10.10122000      -0.03172500       0.01588900       0.02477100
C        6.15001000       0.71013000      10.09788000      -0.17520400      -0.10256900      -0.03994500
C        4.92002000       2.84053000      10.10269000      -0.18439300       0.10794400       0.01488900
C        3.69000000       4.97100000      10.10266000       0.00118600      -0.21467000       0.01459500
Li       0.00000000       1.42027000      11.91390000       0.00001700      -0.00005000      -0.34263600
37
Lattice="7.380000114 0.0 0.0 -3.690000057 6.391267579 0.0 0.0 0.0 24.0" Properties=species:S:1:pos:R:3:forces:R:3 stress="-0.0070413647618743245 5.892608765746384e-05 1.8724527377649774e-08 5.892608765746384e-05 -0.006973600697294609 -5.118037483224272e-07 1.8724527377649774e-08 -5.118037483224272e-07 0.004413764317986982" free_energy=-336.42560109 energy=-336.42426959 pbc="T T T"
C        0.00000000       0.00000000      13.92344000       0.00109900      -0.25423100       0.05137000
C       -1.22999000       2.13040000      13.92341000      -0.21909600       0.12837000       0.05132600
C       -2.46001000       4.26087000      13.89090000      -0.03450500      -0.02175900       0.01460800
C        2.45998000       0.00000000      13.89856000       0.03084700      -0.01712900       0.01929700
C        1.22999000       2.13040000      13.92340000       0.22100900       0.12858600       0.05124400
C       -0.00004000       4.26087000      13.89852000       0.00143200       0.03299900       0.01907400
C        4.92002000       0.00000000      13.89855000      -0.03036300      -0.01818300       0.01916000
C        3.69004000       2.13040000      13.89087000      -0.00129100       0.04170100       0.01441100
C        2.46001000       4.26087000      13.89088000       0.03460700      -0.02257700       0.01441000
C        0.00000000       1.42027000      13.96755000      -0.00107300       0.00167200       0.03303600
C       -1.23002000       3.55073000      13.90069000      -0.00375700       0.13368700       0.01659200
C       -2.46001000       5.68113000      13.90074000       0.11413600      -0.06974800       0.01660500
C        2.45998000       1.42027000      13.90069000       0.11949700      -0.06275600       0.01656000
C        1.22995000       3.55073000      13.90068000       0.00415800       0.13445800       0.01638900
C       -0.00004000       5.68113000      13.89609000       0.00089100       0.00095600      -0.07591400
C        4.92002000       1.42027000      13.90069000      -0.12006700      -0.06375500       0.01656900
C        3.69000000       3.55073000      13.89648000      -0.00115500      -0.00180200      -0.08999600
C        2.46001000       5.68113000      13.90072000      -0.11669300      -0.06995900       0.01641700
C        0.00000000       0.00000000      10.09455000      -0.00120100      -0.21566500      -0.05021800
C       -1.22999000       2.13040000      10.09459000      -0.18841700       0.10946200      -0.05002000
C       -2.46001000       4.26087000      10.10308000      -0.03042700      -0.01870300       0.02316800
C        2.45998000       0.00000000      10.10397000       0.19184500      -0.10889900       0.01203700
C        1.22999000       2.13040000      10.09460000       0.18812800       0.11030800      -0.05000600
C       -0.00004000       4.26087000      10.10401000       0.00119800       0.21968400       0.01219300
C        4.92002000       0.00000000      10.10397000      -0.19251500      -0.10994600       0.01208300
C        3.69004000       2.13040000      10.10311000      -0.00151600       0.03526000       0.02332400
C        2.46001000       4.26087000      10.10308000       0.02832100      -0.01891400       0.02321100
C        1.22999000       0.71013000      10.09488000       0.18710600      -0.10770900      -0.05031400
C        0.00000000       2.84053000      10.09492000       0.00125000       0.21606200      -0.05013900
C       -1.23002000       4.97100000      10.10311000       0.03272100       0.01700500       0.02322800
C        3.69004000       0.71013000      10.10311000      -0.00079200      -0.03694200       0.02322500
C        2.46005000       2.84053000      10.10384000       0.18759700       0.10912700       0.01134100
C        1.23002000       4.97100000      10.10311000      -0.03196300       0.01600400       0.02328000
C        6.15001000       0.71013000      10.09488000      -0.18437300      -0.10792600      -0.05030100
C        4.92002000       2.84053000      10.10383000      -0.18784100       0.10992300       0.01130100
C        3.69000000       4.97100000      10.10379000       0.00118500      -0.21866100       0.01111900
Li       0.00000000       1.42026000      11.88671000       0.00001600       0.00000200      -0.12967100
37
Lattice="7.380000114 0.0 0.0 -3.690000057 6.391267579 0.0 0.0 0.0 24.0" Properties=species:S:1:pos:R:3:forces:R:3 stress="-0.007040428535505441 5.895105369396738e-05 1.8724527377649774e-08 5.895105369396738e-05 -0.00697276433507174 -4.6187167531536115e-07 1.8724527377649774e-08 -4.6187167531536115e-07 0.004414887789629641" free_energy=-336.42902551 energy=-336.42775107 pbc="T T T"
C        0.00000000       0.00000000      13.92774000       0.00108800      -0.25521100       0.01243900
C       -1.22999000       2.13040000      13.92771000      -0.21994100       0.12884900       0.01253500
C       -2.46001000       4.26087000      13.89083000      -0.03463400      -0.02182100      -0.00970900
C        2.45998000       0.00000000      13.89928000       0.03085900      -0.01713400      -0.00028600
C        1.22999000       2.13040000      13.92769000       0.22183800       0.12906800       0.01244900
C       -0.00004000       4.26087000      13.89923000       0.00142400       0.03302100      -0.00045700
C        4.92002000       0.00000000      13.89927000      -0.03038600      -0.01818600      -0.00043200
C        3.69004000       2.13040000      13.89079000      -0.00129700       0.04184600      -0.00981700
C        2.46001000       4.26087000      13.89080000       0.03472400      -0.02263800      -0.00993100
C        0.00000000       1.42027000      13.97027000      -0.00106500       0.00171900      -0.02744800
C       -1.23002000       3.55073000      13.90193000      -0.00385600       0.13054600       0.02963000
C       -2.46001000       5.68113000      13.90198000       0.11136200      -0.06825200       0.02965300
C        2.45998000       1.42027000      13.90193000       0.11683200      -0.06111300       0.02959100
C        1.22995000       3.55073000      13.90190000       0.00426900       0.13131300       0.02942000
C       -0.00004000       5.68113000      13.89192000       0.00089300       0.00092200      -0.01753900
C        4.92002000       1.42027000      13.90193000      -0.11738600      -0.06211000       0.02958900
C        3.69000000       3.55073000      13.89148000      -0.00114700      -0.00186100      -0.02086600
C        2.46001000       5.68113000      13.90196000      -0.11390000      -0.06845800       0.02944800
C        0.00000000       0.00000000      10.09152000      -0.00120100      -0.22027900      -0.03905000
C       -1.22999000       2.13040000      10.09158000      -0.19242800       0.11179100      -0.03893100
C       -2.46001000       4.26087000      10.10455000      -0.03047200      -0.01873200       0.02092400
C        2.45998000       0.00000000      10.10477000       0.19290900      -0.10950700       0.00833600
C        1.22999000       2.13040000      10.09158000       0.19213900       0.11263800      -0.03891000
C       -0.00004000       4.26087000      10.10482000       0.00119700       0.22091300       0.00850400
C        4.92002000       0.00000000      10.10478000      -0.19357900      -0.11055400       0.00839800
C        3.69004000       2.13040000      10.10459000      -0.00151600       0.03531800       0.02105500
C        2.46001000       4.26087000      10.10456000       0.02836600      -0.01894400       0.02100100
C        1.22999000       0.71013000      10.09186000       0.19104000      -0.11003100      -0.03900600
C        0.00000000       2.84053000      10.09191000       0.00125000       0.22066500      -0.03885300
C       -1.23002000       4.97100000      10.10459000       0.03277000       0.01701900       0.02178800
C        3.69004000       0.71013000      10.10459000      -0.00079100      -0.03696300       0.02181600
C        2.46005000       2.84053000      10.10460000       0.18866500       0.10973700       0.00849000
C        1.23002000       4.97100000      10.10459000      -0.03201000       0.01601800       0.02186800
C        6.15001000       0.71013000      10.09187000      -0.18830900      -0.11024900      -0.03898200
C        4.92002000       2.84053000      10.10459000      -0.18890800       0.11053500       0.00844500
C        3.69000000       4.97100000      10.10453000       0.00118500      -0.21989300       0.00827000
Li       0.00000000       1.42026000      11.87549000       0.00001700       0.00002100      -0.06343200
37
Lattice="7.380000114 0.0 0.0 -3.690000057 6.391267579 0.0 0.0 0.0 24.0" Properties=species:S:1:pos:R:3:forces:R:3 stress="-0.0070380380375102275 5.897601973047091e-05 3.744905475529955e-08 5.897601973047091e-05 -0.006970473701222542 -3.3079998367181266e-07 3.744905475529955e-08 -3.3079998367181266e-07 0.004484443167328485" free_energy=-336.43143636 energy=-336.4302022 pbc="T T T"
C        0.00000000       0.00000000      13.93133000       0.00107400      -0.25821000      -0.00119700
C       -1.22999000       2.13040000      13.93131000      -0.22253400       0.13033700      -0.00108400
C       -2.46001000       4.26087000      13.88979000      -0.03411900      -0.02152000       0.00684300
C        2.45998000       0.00000000      13.89958000       0.03044900      -0.01689700       0.00913900
C        1.22999000       2.13040000      13.93128000       0.22441700       0.13056600      -0.00116900
C       -0.00004000       4.26087000      13.89950000       0.00141700       0.03254800       0.00900000
C        4.92002000       0.00000000      13.89954000      -0.02997900      -0.01794200       0.00899100
C        3.69004000       2.13040000      13.88973000      -0.00130100       0.04125000       0.00682000
C        2.46001000       4.26087000      13.88973000       0.03419800      -0.02233400       0.00661300
C        0.00000000       1.42027000      13.96955000      -0.00106100       0.00170700       0.04815500
C       -1.23002000       3.55073000      13.90530000      -0.00512900       0.12950900       0.00340100
C       -2.46001000       5.68113000      13.90536000       0.10981300      -0.06879200       0.00340600
C        2.45998000       1.42027000      13.90529000       0.11657500      -0.05953100       0.00333400
C        1.22995000       3.55073000      13.90525000       0.00555100       0.13027100       0.00321200
C       -0.00004000       5.68113000      13.88811000       0.00089000       0.00091100       0.01028200
C        4.92002000       1.42027000      13.90529000      -0.11711500      -0.06052500       0.00333100
C        3.69000000       3.55073000      13.88692000      -0.00114000      -0.00190900       0.00653200
C        2.46001000       5.68113000      13.90530000      -0.11233300      -0.06899300       0.00321100
C        0.00000000       0.00000000      10.08639000      -0.00120200      -0.22510900      -0.03935800
C       -1.22999000       2.13040000      10.08647000      -0.19663400       0.11424400      -0.03932200
C       -2.46001000       4.26087000      10.10723000      -0.03044800      -0.01872900       0.01370800
C        2.45998000       0.00000000      10.10596000       0.19280900      -0.10944000       0.00551000
C        1.22999000       2.13040000      10.08647000       0.19634500       0.11509400      -0.03928100
C       -0.00004000       4.26087000      10.10603000       0.00119600       0.22079500       0.00571600
C        4.92002000       0.00000000      10.10598000      -0.19347600      -0.11048600       0.00558500
C        3.69004000       2.13040000      10.10728000      -0.00151600       0.03530100       0.01380600
C        2.46001000       4.26087000      10.10724000       0.02834200      -0.01894200       0.01382900
C        1.22999000       0.71013000      10.08675000       0.19513300      -0.11245200      -0.03963000
C        0.00000000       2.84053000      10.08682000       0.00124900       0.22548400      -0.03956900
C       -1.23002000       4.97100000      10.10734000       0.03271900       0.01696200       0.01392600
C        3.69004000       0.71013000      10.10735000      -0.00078900      -0.03684000       0.01398300
C        2.46005000       2.84053000      10.10578000       0.18859700       0.10968600       0.00513200
C        1.23002000       4.97100000      10.10736000      -0.03196000       0.01596200       0.01403500
C        6.15001000       0.71013000      10.08676000      -0.19240400      -0.11267000      -0.03958200
C        4.92002000       2.84053000      10.10577000      -0.18883800       0.11048500       0.00506700
C        3.69000000       4.97100000      10.10569000       0.00118500      -0.21981500       0.00496700
Li       0.00001000       1.42026000      11.86316000       0.00001700       0.00002600      -0.00734200
37
Lattice="7.380000114 0.0 0.0 -3.690000057 6.391267579 0.0 0.0 0.0 24.0" Properties=species:S:1:pos:R:3:forces:R:3 stress="-0.0070477061351462205 5.897601973047091e-05 4.9932073007066075e-08 5.897601973047091e-05 -0.006980148040367661 -2.4341885590944707e-07 4.9932073007066075e-08 -2.4341885590944707e-07 0.0044400473129160775" free_energy=-336.43192761 energy=-336.43069428 pbc="T T T"
C        0.00000000       0.00000000      13.93156000       0.00107000      -0.25697000       0.00970500
C       -1.22999000       2.13040000      13.93155000      -0.22146100       0.12971500       0.00977900
C       -2.46001000       4.26087000      13.88992000      -0.03409700      -0.02150500       0.01163500
C        2.45998000       0.00000000      13.89992000       0.03052400      -0.01694100       0.01368300
C        1.22999000       2.13040000      13.93152000       0.22334100       0.12994600       0.00970300
C       -0.00004000       4.26087000      13.89984000       0.00141600       0.03263300       0.01358000
C        4.92002000       0.00000000      13.89988000      -0.03005300      -0.01798500       0.01354200
C        3.69004000       2.13040000      13.88986000      -0.00130100       0.04122400       0.01158100
C        2.46001000       4.26087000      13.88985000       0.03417600      -0.02232000       0.01142000
C        0.00000000       1.42027000      13.97108000      -0.00105900       0.00172700      -0.02909400
C       -1.23002000       3.55073000      13.90555000      -0.00507700       0.12955700       0.00656000
C       -2.46001000       5.68113000      13.90561000       0.10988200      -0.06877000       0.00654500
C        2.45998000       1.42027000      13.90554000       0.11659100      -0.05960500       0.00651300
C        1.22995000       3.55073000      13.90549000       0.00549700       0.13031600       0.00637000
C       -0.00004000       5.68113000      13.88857000       0.00088800       0.00091400       0.01343800
C        4.92002000       1.42027000      13.90554000      -0.11712900      -0.06059800       0.00651300
C        3.69000000       3.55073000      13.88723000      -0.00113900      -0.00190700       0.00755500
C        2.46001000       5.68113000      13.90555000      -0.11239800      -0.06896800       0.00635400
C        0.00000000       0.00000000      10.08461000      -0.00120200      -0.22556700      -0.03354200
C       -1.22999000       2.13040000      10.08469000      -0.19703400       0.11448000      -0.03352400
C       -2.46001000       4.26087000      10.10789000      -0.03044200      -0.01873200       0.00328200
C        2.45998000       0.00000000      10.10623000       0.19231100      -0.10915200       0.00768400
C        1.22999000       2.13040000      10.08469000       0.19674600       0.11533100      -0.03348500
C       -0.00004000       4.26087000      10.10631000       0.00119600       0.22021600       0.00783400
C        4.92002000       0.00000000      10.10625000      -0.19297700      -0.11019800       0.00776700
C        3.69004000       2.13040000      10.10795000      -0.00151500       0.03529500       0.00338100
C        2.46001000       4.26087000      10.10791000       0.02833600      -0.01894300       0.00339800
C        1.22999000       0.71013000      10.08496000       0.19551300      -0.11268700      -0.03358200
C        0.00000000       2.84053000      10.08504000       0.00124900       0.22594800      -0.03350800
C       -1.23002000       4.97100000      10.10802000       0.03270500       0.01694600       0.00358600
C        3.69004000       0.71013000      10.10803000      -0.00078900      -0.03681100       0.00361000
C        2.46005000       2.84053000      10.10603000       0.18811700       0.10940500       0.00745400
C        1.23002000       4.97100000      10.10804000      -0.03194600       0.01594600       0.00370500
C        6.15001000       0.71013000      10.08497000      -0.19278600      -0.11290500      -0.03354300
C        4.92002000       2.84053000      10.10602000      -0.18835700       0.11020400       0.00737600
C        3.69000000       4.97100000      10.10593000       0.00118500      -0.21926300       0.00731500
Li       0.00001000       1.42027000      11.86237000       0.00001700       0.00002300      -0.00059300
37