37
Lattice="7.380000114 0.0 0.0 -3.690000057 6.391267579 0.0 0.0 0.0 24.0" Properties=species:S:1:pos:R:3:forces:R:3 stress="-0.007467191721987709 5.883870652970148e-05 -1.1234716426589864e-07 5.883870652970148e-05 -0.007399246653643344 7.48981095105991e-08 -1.1234716426589864e-07 7.48981095105991e-08 -0.009744275254874573" free_energy=-334.99678049 energy=-334.99496574 pbc="T T T"
C        0.00000000       0.00000000      13.60000000       0.00116100      -0.35854400       0.29372100
C       -1.22999000       2.13040000      13.60000000      -0.30939600       0.18063800       0.29453500
C       -2.46001000       4.26087000      13.60000000      -0.04528900      -0.02820500       0.06261200
C        2.45998000       0.00000000      13.60000000       0.03906700      -0.02177500       0.08290100
C        1.22999000       2.13040000      13.60000000       0.31141400       0.18084600       0.29451700
C       -0.00004000       4.26087000      13.60000000       0.00148600       0.04221500       0.08301100
C        4.92002000       0.00000000      13.60000000      -0.03849700      -0.02284400       0.08290300
C        3.69004000       2.13040000      13.60000000      -0.00124000       0.05429000       0.06268800
C        2.46001000       4.26087000      13.60000000       0.04548500      -0.02901800       0.06261100
C        0.00000000       1.42027000      13.60000000      -0.00114200       0.00155000       5.18847500
C       -1.23002000       3.55073000      13.60000000       0.01739400       0.15349500       0.09100100
C       -2.46001000       5.68113000      13.60000000       0.14213300      -0.06150100       0.09061900
C        2.45998000       1.42027000      13.60000000       0.12616800      -0.09078000       0.09099100
C        1.22995000       3.55073000      13.60000000      -0.01706800       0.15427800       0.09100300
C       -0.00004000       5.68113000      13.60000000       0.00085600       0.00095600       0.06382300
C        4.92002000       1.42027000      13.60000000      -0.12683200      -0.09177600       0.09099000
C        3.69000000       3.55073000      13.60000000      -0.00118900      -0.00193200       0.09204700
C        2.46001000       5.68113000      13.60000000      -0.14478400      -0.06172600       0.09062200
C        0.00000000       0.00000000      10.40000000      -0.00115700      -0.31929200      -0.32999100
C       -1.22999000       2.13040000      10.40000000      -0.27818800       0.16138400      -0.33078000
C       -2.46001000       4.26087000      10.40000000      -0.03706400      -0.02278100      -0.07319200
C        2.45998000       0.00000000      10.40000000       0.18810000      -0.10660300      -0.03418800
C        1.22999000       2.13040000      10.40000000       0.27799800       0.16223800      -0.33078100
C       -0.00004000       4.26087000      10.40000000       0.00124200       0.21507500      -0.03425300
C        4.92002000       0.00000000      10.40000000      -0.18867700      -0.10765300      -0.03418600
C        3.69004000       2.13040000      10.40000000      -0.00146800       0.04304100      -0.07330000
C        2.46001000       4.26087000      10.40000000       0.03505000      -0.02299200      -0.07319600
C        1.22999000       0.71013000      10.40000000       0.27073200      -0.15543800      -0.31742900
C        0.00000000       2.84053000      10.40000000       0.00120100       0.31238300      -0.31777000
C       -1.23002000       4.97100000      10.40000000       0.04476500       0.02385700      -0.08335900
C        3.69004000       0.71013000      10.40000000      -0.00084600      -0.05065900      -0.08338200
C        2.46005000       2.84053000      10.40000000       0.17609400       0.10252300      -0.04403200
C        1.23002000       4.97100000      10.40000000      -0.04410500       0.02285700      -0.08336100
C        6.15001000       0.71013000      10.40000000      -0.26810500      -0.15565900      -0.31740600
C        4.92002000       2.84053000      10.40000000      -0.17645000       0.10332100      -0.04404700
C        3.69000000       4.97100000      10.40000000       0.00113400      -0.20573000      -0.04364600
Li       0.00000000       1.42027000      12.00000000       0.00001500      -0.00004000      -4.56077100
37
Lattice="7.380000114 0.0 0.0 -3.690000057 6.391267579 0.0 0.0 0.0 24.0" Properties=species:S:1:pos:R:3:forces:R:3 stress="-0.007919713616632497 5.805851788896607e-05 4.369056388118281e-08 5.805851788896607e-05 -0.00785214928034481 -3.4952451104946246e-07 4.369056388118281e-08 -3.4952451104946246e-07 -0.0036765921581471623" free_energy=-335.38629507 energy=-335.38460817 pbc="T T T"
C        0.00000000       0.00000000      13.61417000       0.00109200       0.00622100       1.41985700
C       -1.22999000       2.13040000      13.61421000       0.00630400      -0.00157000       1.42008300
C       -2.46001000       4.26087000      13.60302000      -0.02516100      -0.01662800      -0.13382200
C        2.45998000       0.00000000      13.60400000       0.03544300      -0.01968000       0.16577700
C        1.22999000       2.13040000      13.61421000      -0.00449300      -0.00141500       1.41987900
C       -0.00004000       4.26087000      13.60400000       0.00148800       0.03796600       0.16574400
C        4.92002000       0.00000000      13.60400000      -0.03485100      -0.02074500       0.16571000
C        3.69004000       2.13040000      13.60302000      -0.00123200       0.03106600      -0.13372300
C        2.46001000       4.26087000      13.60302000       0.02529400      -0.01739800      -0.13397300
C        0.00000000       1.42027000      13.85031000      -0.00086300       0.00137300      -2.59389500
C       -1.23002000       3.55073000      13.60439000      -0.00819300       0.13180200       0.03362200
C       -2.46001000       5.68113000      13.60437000       0.11068400      -0.07281800       0.03316400
C        2.45998000       1.42027000      13.60439000       0.12015500      -0.05785700       0.03345100
C        1.22995000       3.55073000      13.60439000       0.00839500       0.13238500       0.03306900
C       -0.00004000       5.68113000      13.60308000       0.00085200       0.00098000       0.09489900
C        4.92002000       1.42027000      13.60439000      -0.12085900      -0.05883800       0.03344300
C        3.69000000       3.55073000      13.60444000      -0.00118900      -0.00196200       0.12696600
C        2.46001000       5.68113000      13.60437000      -0.11322900      -0.07289400       0.03266700
C        0.00000000       0.00000000      10.38408000      -0.00112400      -0.57287000      -0.53849600
C       -1.22999000       2.13040000      10.38404000      -0.49772400       0.28814000      -0.53841400
C       -2.46001000       4.26087000      10.39647000      -0.03080700      -0.01923900      -0.05541300
C        2.45998000       0.00000000      10.39835000       0.21163500      -0.12019000      -0.09921300
C        1.22999000       2.13040000      10.38404000       0.49760500       0.28900400      -0.53838400
C       -0.00004000       4.26087000      10.39835000       0.00126900       0.24216500      -0.09928800
C        4.92002000       0.00000000      10.39835000      -0.21214500      -0.12123400      -0.09915700
C        3.69004000       2.13040000      10.39646000      -0.00143100       0.03583200      -0.05546700
C        2.46001000       4.26087000      10.39647000       0.02885500      -0.01944700      -0.05533400
C        1.22999000       0.71013000      10.38469000       0.48700500      -0.28004200      -0.53667700
C        0.00000000       2.84053000      10.38467000       0.00118000       0.56192300      -0.53667000
C       -1.23002000       4.97100000      10.39598000       0.03917600       0.02063000      -0.05117400
C        3.69004000       0.71013000      10.39598000      -0.00086200      -0.04423500      -0.05127500
C        2.46005000       2.84053000      10.39788000       0.19525600       0.11361500      -0.09800200
C        1.23002000       4.97100000      10.39598000      -0.03855600       0.01962800      -0.05110200
C        6.15001000       0.71013000      10.38469000      -0.48443700      -0.28026500      -0.53664800
C        4.92002000       2.84053000      10.39788000      -0.19565500       0.11441900      -0.09803800
C        3.69000000       4.97100000      10.39789000       0.00111400      -0.22794900      -0.09756700
Li       0.00000000       1.42027000      11.77998000       0.00000800       0.00012600       1.95339700
37
Lattice="7.380000114 0.0 0.0 -3.690000057 6.391267579 0.0 0.0 0.0 24.0" Properties=species:S:1:pos:R:3:forces:R:3 stress="-0.007650342565777626 5.8345627308756696e-05 -8.113961863648234e-08 5.8345627308756696e-05 -0.007583433587948159 -3.9321507493064526e-07 -8.113961863648234e-08 -3.9321507493064526e-07 -0.004297091787896847" free_energy=-335.74128352 energy=-335.73953956 pbc="T T T"
C        0.00000000       0.00000000      13.65806000       0.00111100      -0.26165000       0.28407200
C       -1.22999000       2.13040000      13.65810000      -0.22556000       0.13212300       0.28375900
C       -2.46001000       4.26087000      13.59888000      -0.04361000      -0.02721200      -0.01337800
C        2.45998000       0.00000000      13.60912000       0.03699900      -0.02055500       0.05145500
C        1.22999000       2.13040000      13.65810000       0.22749200       0.13233200       0.28349800
C       -0.00004000       4.26087000      13.60913000       0.00147400       0.03977800       0.05121200
C        4.92002000       0.00000000      13.60912000      -0.03641800      -0.02161100       0.05113400
C        3.69004000       2.13040000      13.59889000      -0.00124000       0.05236000      -0.01318500
C        2.46001000       4.26087000      13.59888000       0.04376600      -0.02800300      -0.01387600
C        0.00000000       1.42027000      13.77013000      -0.00103700       0.00110600      -0.07083100
C       -1.23002000       3.55073000      13.60543000       0.01437200       0.11002600       0.28844100
C       -2.46001000       5.68113000      13.60540000       0.10311300      -0.04236000       0.28814400
C        2.45998000       1.42027000      13.60542000       0.09001400      -0.06646500       0.28830600
C        1.22995000       3.55073000      13.60541000      -0.01409700       0.11071500       0.28812200
C       -0.00004000       5.68113000      13.60601000       0.00085300       0.00103400       0.00912300
C        4.92002000       1.42027000      13.60542000      -0.09066700      -0.06744300       0.28830000
C        3.69000000       3.55073000      13.60836000      -0.00118800      -0.00195200      -0.00139800
C        2.46001000       5.68113000      13.60538000      -0.10568500      -0.04251400       0.28783900
C        0.00000000       0.00000000      10.36744000      -0.00114200      -0.46477300      -0.35738600
C       -1.22999000       2.13040000      10.36740000      -0.40416800       0.23414000      -0.35661300
C       -2.46001000       4.26087000      10.39476000      -0.03353900      -0.02077700      -0.05969600
C        2.45998000       0.00000000      10.39528000       0.20608400      -0.11694300      -0.13345700
C        1.22999000       2.13040000      10.36740000       0.40400700       0.23499900      -0.35655200
C       -0.00004000       4.26087000      10.39528000       0.00124800       0.23579500      -0.13339600
C        4.92002000       0.00000000      10.39529000      -0.20662800      -0.11798600      -0.13334300
C        3.69004000       2.13040000      10.39475000      -0.00145000       0.03900700      -0.05979300
C        2.46001000       4.26087000      10.39476000       0.03155000      -0.02098800      -0.05953800
C        1.22999000       0.71013000      10.36810000       0.39218000      -0.22537200      -0.35882100
C        0.00000000       2.84053000      10.36808000       0.00119000       0.45251700      -0.35850600
C       -1.23002000       4.97100000      10.39440000       0.04200400       0.02226500      -0.05570500
C        3.69004000       0.71013000      10.39439000      -0.00084700      -0.04747500      -0.05576200
C        2.46005000       2.84053000      10.39485000       0.18772000       0.10930100      -0.12980300
C        1.23002000       4.97100000      10.39440000      -0.04136000       0.02126400      -0.05554600
C        6.15001000       0.71013000      10.36810000      -0.38958900      -0.22559400      -0.35877400
C        4.92002000       2.84053000      10.39484000      -0.18808500       0.11010400      -0.12989200
C        3.69000000       4.97100000      10.39488000       0.00112600      -0.21930100      -0.12955800
Li       0.00000000       1.42027000      11.84035000       0.00000600       0.00010700       0.65140100
37
Lattice="7.380000114 0.0 0.0 -3.690000057 6.391267579 0.0 0.0 0.0 24.0" Properties=species:S:1:pos:R:3:forces:R:3 stress="-0.007576723965637835 5.8314419763127284e-05 -3.1207545629416294e-08 5.8314419763127284e-05 -0.0075105452443760936 -3.6824903842711227e-07 -3.1207545629416294e-08 -3.6824903842711227e-07 -0.004078333134543764" free_energy=-335.81485768 energy=-335.81306965 pbc="T T T"
C        0.00000000       0.00000000      13.66807000       0.00109500      -0.26967600       0.30601400
C       -1.22999000       2.13040000      13.66810000      -0.23250400       0.13614400       0.30629800
C       -2.46001000       4.26087000      13.59860000      -0.04277400      -0.02671200       0.12422900
C        2.45998000       0.00000000      13.61120000       0.03604300      -0.01996900       0.16813600
C        1.22999000       2.13040000      13.66808000       0.23441900       0.13636500       0.30611300
C       -0.00004000       4.26087000      13.61119000       0.00146700       0.03868100       0.16803300
C        4.92002000       0.00000000      13.61118000      -0.03546800      -0.02101600       0.16786800
C        3.69004000       2.13040000      13.59862000      -0.00124200       0.05141500       0.12437500
C        2.46001000       4.26087000      13.59857000       0.04291900      -0.02750000       0.12381900
C        0.00000000       1.42027000      13.77401000      -0.00102300       0.00108600       0.13363900
C       -1.23002000       3.55073000      13.61960000       0.01107800       0.12054400       0.13454800
C       -2.46001000       5.68113000      13.61955000       0.11072300      -0.05044700       0.13490100
C        2.45998000       1.42027000      13.61959000       0.10078300      -0.06889200       0.13459800
C        1.22995000       3.55073000      13.61957000      -0.01076600       0.12123800       0.13412300
C       -0.00004000       5.68113000      13.60619000       0.00085200       0.00105900      -0.03010200
C        4.92002000       1.42027000      13.61959000      -0.10142300      -0.06986700       0.13462200
C        3.69000000       3.55073000      13.60793000      -0.00118900      -0.00192600      -0.03943300
C        2.46001000       5.68113000      13.61953000      -0.11328300      -0.05060300       0.13450800
C        0.00000000       0.00000000      10.35129000      -0.00115200      -0.42167100      -0.28381300
C       -1.22999000       2.13040000      10.35129000      -0.36681700       0.21253700      -0.28354300
C       -2.46001000       4.26087000      10.39196000      -0.03401300      -0.02103200      -0.07086500
C        2.45998000       0.00000000      10.38897000       0.19895200      -0.11277600      -0.11545000
C        1.22999000       2.13040000      10.35130000       0.36663900       0.21339700      -0.28347200
C       -0.00004000       4.26087000      10.38896000       0.00124400       0.22758400      -0.11521900
C        4.92002000       0.00000000      10.38897000      -0.19950800      -0.11382000      -0.11529300
C        3.69004000       2.13040000      10.39195000      -0.00145900       0.03958400      -0.07098900
C        2.46001000       4.26087000      10.39197000       0.03200700      -0.02124600      -0.07065400
C        1.22999000       0.71013000      10.35188000       0.35524700      -0.20440500      -0.28732600
C        0.00000000       2.84053000      10.35188000       0.00119900       0.41018700      -0.28676100
C       -1.23002000       4.97100000      10.39179000       0.04219800       0.02237700      -0.07194200
C        3.69004000       0.71013000      10.39178000      -0.00083800      -0.04767700      -0.07194500
C        2.46005000       2.84053000      10.38871000       0.18112600       0.10557000      -0.11594400
C        1.23002000       4.97100000      10.39180000      -0.04154000       0.02137700      -0.07172100
C        6.15001000       0.71013000      10.35188000      -0.35264400      -0.20463200      -0.28726900
C        4.92002000       2.84053000      10.38870000      -0.18148000       0.10637500      -0.11608300
C        3.69000000       4.97100000      10.38875000       0.00113500      -0.21177200      -0.11618700
Li       0.00000000       1.42027000      11.86701000       0.00000100       0.00012100       0.16818600
37
Lattice="7.380000114 0.0 0.0 -3.690000057 6.391267579 0.0 0.0 0.0 24.0" Properties=species:S:1:pos:R:3:forces:R:3 stress="-0.0072911374740739195 5.81958310897355e-05 3.1207545629416294e-08 5.81958310897355e-05 -0.0072254206244874945 5.867018578330263e-07 3.1207545629416294e-08 5.867018578330263e-07 -0.0031818589372840265" free_energy=-335.91615071 energy=-335.91436773 pbc="T T T"
C        0.00000000       0.00000000      13.69758000       0.00103200      -0.29619100       0.14968000
C       -1.22999000       2.13040000      13.69762000      -0.25546800       0.14940800       0.15010700
C       -2.46001000       4.26087000      13.60981000      -0.04492400      -0.02798200       0.07169900
C        2.45998000       0.00000000      13.62687000       0.04029500      -0.02241200       0.11217900
C        1.22999000       2.13040000      13.69758000       0.25733800       0.14967700       0.14993600
C       -0.00004000       4.26087000      13.62684000       0.00144700       0.04364000       0.11179800
C        4.92002000       0.00000000      13.62682000      -0.03971200      -0.02343700       0.11189300
C        3.69004000       2.13040000      13.60984000      -0.00124400       0.05396900       0.07132900
C        2.46001000       4.26087000      13.60974000       0.04504000      -0.02875700       0.07123900
C        0.00000000       1.42027000      13.79049000      -0.00099800       0.00083100       0.43913900
C       -1.23002000       3.55073000      13.63688000       0.01170200       0.11370100       0.13426700
C       -2.46001000       5.68113000      13.63687000       0.10486400      -0.04643100       0.13446900
C        2.45998000       1.42027000      13.63687000       0.09450300      -0.06591200       0.13428700
C        1.22995000       3.55073000      13.63681000      -0.01139900       0.11435200       0.13381300
C       -0.00004000       5.68113000      13.60345000       0.00084300       0.00104300       0.16667300
C        4.92002000       1.42027000      13.63688000      -0.09510300      -0.06687800       0.13429800
C        3.69000000       3.55073000      13.60409000      -0.00116600      -0.00191200       0.17347500
C        2.46001000       5.68113000      13.63680000      -0.10735000      -0.04655900       0.13402900
C        0.00000000       0.00000000      10.32047000      -0.00116800      -0.38606700      -0.15702500
C       -1.22999000       2.13040000      10.32051000      -0.33598300       0.19478400      -0.15766300
C       -2.46001000       4.26087000      10.38463000      -0.03434800      -0.02121100      -0.11669400
C        2.45998000       0.00000000      10.37638000       0.18380800      -0.10401000      -0.13174000
C        1.22999000       2.13040000      10.32052000       0.33578700       0.19565300      -0.15754800
C       -0.00004000       4.26087000      10.37640000       0.00123600       0.21019100      -0.13127100
C        4.92002000       0.00000000      10.37640000      -0.18436900      -0.10505000      -0.13152900
C        3.69004000       2.13040000      10.38461000      -0.00148600       0.04000600      -0.11663000
C        2.46001000       4.26087000      10.38466000       0.03232000      -0.02142600      -0.11640200
C        1.22999000       0.71013000      10.32071000       0.32571300      -0.18781800      -0.15448100
C        0.00000000       2.84053000      10.32077000       0.00122000       0.37647800      -0.15466600
C       -1.23002000       4.97100000      10.38442000       0.04178400       0.02212100      -0.11368700
C        3.69004000       0.71013000      10.38441000      -0.00083800      -0.04718800      -0.11369600
C        2.46005000       2.84053000      10.37614000       0.16784300       0.09793000      -0.12777200
C        1.23002000       4.97100000      10.38445000      -0.04109900       0.02112300      -0.11338400
C        6.15001000       0.71013000      10.32072000      -0.32309500      -0.18805900      -0.15439500
C        4.92002000       2.84053000      10.37612000      -0.16817100       0.09873900      -0.12797600
C        3.69000000       4.97100000      10.37616000       0.00114800      -0.19639900      -0.12828000
Li       0.00000000       1.42029000      11.88968000      -0.00000300       0.00005600      -0.17947300
37
Lattice="7.380000114 0.0 0.0 -3.690000057 6.391267579 0.0 0.0 0.0 24.0" Properties=species:S:1:pos:R:3:forces:R:3 stress="-0.006801509807675756 5.8133415998476674e-05 8.113961863648234e-08 5.8133415998476674e-05 -0.006734569622300657 1.2545433343025348e-06 8.113961863648234e-08 1.2545433343025348e-06 -0.0019938750562999105" free_energy=-336.00102489 energy=-335.99933698 pbc="T T T"
C        0.00000000       0.00000000      13.72592000       0.00094300      -0.30390000       0.09375500
C       -1.22999000       2.13040000      13.72600000      -0.26224800       0.15345300       0.09411900
C       -2.46001000       4.26087000      13.61941000      -0.04474100      -0.02789200       0.14633500
C        2.45998000       0.00000000      13.64214000       0.04220300      -0.02358400       0.06322100
C        1.22999000       2.13040000      13.72594000       0.26404900       0.15378500       0.09395800
C       -0.00004000       4.26087000      13.64209000       0.00142500       0.04588400       0.06247400
C        4.92002000       0.00000000      13.64206000      -0.04160000      -0.02457400       0.06291600
C        3.69004000       2.13040000      13.61943000      -0.00125400       0.05372900       0.14597900
C        2.46001000       4.26087000      13.61928000       0.04482800      -0.02864800       0.14587700
C        0.00000000       1.42027000      13.82019000      -0.00095500       0.00098500       0.36173500
C       -1.23002000       3.55073000      13.65573000       0.01058400       0.10695900       0.10259400
C       -2.46001000       5.68113000      13.65573000       0.09821800      -0.04395400       0.10238600
C        2.45998000       1.42027000      13.65572000       0.08915000      -0.06174300       0.10239700
C        1.22995000       3.55073000      13.65560000      -0.01027700       0.10753300       0.10218400
C       -0.00004000       5.68113000      13.61243000       0.00082100       0.00109200       0.19470900
C        4.92002000       1.42027000      13.65572000      -0.08971400      -0.06269600       0.10240400
C        3.69000000       3.55073000      13.61292000      -0.00114500      -0.00200400       0.15827800
C        2.46001000       5.68113000      13.65561000      -0.10060500      -0.04403000       0.10198400
C        0.00000000       0.00000000      10.29210000      -0.00118200      -0.37257400      -0.09713100
C       -1.22999000       2.13040000      10.29213000      -0.32427100       0.18794400      -0.09811800
C       -2.46001000       4.26087000      10.37337000      -0.03433200      -0.02120800      -0.15560000
C        2.45998000       0.00000000      10.36100000       0.17084500      -0.09660700      -0.07493300
C        1.22999000       2.13040000      10.29215000       0.32407000       0.18882500      -0.09798400
C       -0.00004000       4.26087000      10.36106000       0.00123100       0.19522600      -0.07445700
C        4.92002000       0.00000000      10.36104000      -0.17138900      -0.09764000      -0.07470100
C        3.69004000       2.13040000      10.37335000      -0.00147900       0.03992800      -0.15538000
C        2.46001000       4.26087000      10.37344000       0.03229800      -0.02142200      -0.15525200
C        1.22999000       0.71013000      10.29232000       0.31554600      -0.18157800      -0.10952600
C        0.00000000       2.84053000      10.29240000       0.00123000       0.36436200      -0.11005700
C       -1.23002000       4.97100000      10.37337000       0.04115600       0.02173600      -0.15761200
C        3.69004000       0.71013000      10.37336000      -0.00082600      -0.04650800      -0.15762200
C        2.46005000       2.84053000      10.36103000       0.15599300       0.09091900      -0.07606700
C        1.23002000       4.97100000      10.37343000      -0.04046500       0.02073800      -0.15725100
C        6.15001000       0.71013000      10.29234000      -0.31293800      -0.18183900      -0.10940700
C        4.92002000       2.84053000      10.36099000      -0.15631200       0.09173300      -0.07630700
C        3.69000000       4.97100000      10.36102000       0.00114800      -0.18243200      -0.07639600
Li       0.00000000       1.42030000      11.89817000      -0.00000800      -0.00000100      -0.22350400
37
Lattice="7.380000114 0.0 0.0 -3.690000057 6.391267579 0.0 0.0 0.0 24.0" Properties=species:S:1:pos:R:3:forces:R:3 stress="-0.006370552327060895 5.817086505323196e-05 9.362263688824886e-08 5.817086505323196e-05 -0.006302881885118069 1.2108527704213522e-06 9.362263688824886e-08 1.2108527704213522e-06 -0.0012853576648570206" free_energy=-336.04493014 energy=-336.04330531 pbc="T T T"
C        0.00000000       0.00000000      13.74132000       0.00088400      -0.30402600       0.05912200
C       -1.22999000       2.13040000      13.74143000      -0.26239300       0.15349900       0.05864300
C       -2.46001000       4.26087000      13.62915000      -0.04598700      -0.02864500       0.14002600
C        2.45998000       0.00000000      13.64966000       0.03996500      -0.02237800       0.10875600
C        1.22999000       2.13040000      13.74135000       0.26414700       0.15387400       0.05847400
C       -0.00004000       4.26087000      13.64957000       0.00140700       0.04331900       0.10824900
C        4.92002000       0.00000000      13.64956000      -0.03935400      -0.02334000       0.10848000
C        3.69004000       2.13040000      13.62915000      -0.00124400       0.05511100       0.13981000
C        2.46001000       4.26087000      13.62898000       0.04605600      -0.02939100       0.13954900
C        0.00000000       1.42027000      13.83850000      -0.00092900       0.00130400       0.18480300
C       -1.23002000       3.55073000      13.66647000       0.01118900       0.10213700       0.08852700
C       -2.46001000       5.68113000      13.66647000       0.09432000      -0.04093600       0.08824500
C        2.45998000       1.42027000      13.66645000       0.08464600      -0.06007700       0.08843200
C        1.22995000       3.55073000      13.66631000      -0.01087400       0.10265100       0.08812400
C       -0.00004000       5.68113000      13.62212000       0.00080700       0.00108700       0.14100200
C        4.92002000       1.42027000      13.66645000      -0.08518900      -0.06102300       0.08842800
C        3.69000000       3.55073000      13.62057000      -0.00112800      -0.00204400       0.19679600
C        2.46001000       5.68113000      13.66632000      -0.09663900      -0.04097600       0.08784400
C        0.00000000       0.00000000      10.27734000      -0.00119000      -0.36992400      -0.09231900
C       -1.22999000       2.13040000      10.27733000      -0.32205900       0.18669700      -0.09297800
C       -2.46001000       4.26087000      10.36330000      -0.03486400      -0.02150600      -0.07746100
C        2.45998000       0.00000000      10.35329000       0.16238800      -0.09183100      -0.13890800
C        1.22999000       2.13040000      10.27736000       0.32185600       0.18758700      -0.09284500
C       -0.00004000       4.26087000      10.35338000       0.00122900       0.18547400      -0.13861100
C        4.92002000       0.00000000      10.35335000      -0.16292200      -0.09285300      -0.13870700
C        3.69004000       2.13040000      10.36329000      -0.00147700       0.04048300      -0.07712500
C        2.46001000       4.26087000      10.36339000       0.03282000      -0.02171800      -0.07711200
C        1.22999000       0.71013000      10.27687000       0.31494300      -0.18091000      -0.07701500
C        0.00000000       2.84053000      10.27693000       0.00123600       0.36342100      -0.07731600
C       -1.23002000       4.97100000      10.36322000       0.04097600       0.02163300      -0.07687700
C        3.69004000       0.71013000      10.36321000      -0.00082000      -0.04630400      -0.07698600
C        2.46005000       2.84053000      10.35330000       0.14947500       0.08707600      -0.13393800
C        1.23002000       4.97100000      10.36331000      -0.04027700       0.02063000      -0.07651500
C        6.15001000       0.71013000      10.27689000      -0.31234400      -0.18118400      -0.07688700
C        4.92002000       2.84053000      10.35325000      -0.14979800       0.08789500      -0.13414400
C        3.69000000       4.97100000      10.35327000       0.00115000      -0.17479700      -0.13393400
Li       0.00000000       1.42030000      11.89789000      -0.00001000      -0.00001300      -0.18363100
37