37
Lattice="7.380000114 0.0 0.0 -3.690000057 6.391267579 0.0 0.0 0.0 24.0" Properties=species:S:1:pos:R:3:forces:R:3 stress="-0.006893172610698477 5.22289483653911e-05 1.2620331452535948e-05 5.22289483653911e-05 -0.006832842183487689 -7.308807186409295e-06 1.2620331452535948e-05 -7.308807186409295e-06 0.001141621951197055" free_energy=-336.26548145 energy=-336.26379265 pbc="T T T"
C        0.00000000       0.00000000      13.85000000       0.00116300      -0.28904400       0.01222500
C       -1.22999000       2.13040000      13.85000000      -0.25028100       0.14777200       0.01471800
C       -2.46001000       4.26087000      13.85000000      -0.03699000      -0.02591500      -0.03203200
C        2.45998000       0.00000000      13.85000000       0.03602400      -0.01879000      -0.00930900
C        1.22999000       2.13040000      13.85000000       0.25230100       0.14797500       0.01471000
C       -0.00004000       4.26087000      13.85000000       0.00464400       0.03436700      -0.00741900
C        4.92002000       0.00000000      13.85000000      -0.03544600      -0.01985100      -0.00930900
C        3.69004000       2.13040000      13.85000000      -0.00440100       0.04778800      -0.03017500
C        2.46001000       4.26087000      13.85000000       0.03719800      -0.02673100      -0.03203400
C        0.00000000       1.42027000      13.85000000      -0.00114500       0.00174100       1.72506500
C       -1.23002000       3.55073000      13.85000000       0.00213100       0.14600200      -0.02118200
C       -2.46001000       5.68113000      13.85000000       0.12826000      -0.07467800      -0.02525700
C        2.45998000       1.42027000      13.85000000       0.13367100      -0.07023900      -0.02127200
C        1.22995000       3.55073000      13.85000000       0.00449000       0.14679200      -0.02119000
C       -0.00004000       5.68113000      13.85000000       0.00400500      -0.00078000      -0.03633300
C        4.92002000       1.42027000      13.85000000      -0.13434500      -0.07123600      -0.02127100
C        3.69000000       3.55073000      13.85000000      -0.00119700      -0.00563100      -0.00628000
C        2.46001000       5.68113000      13.85000000      -0.13092900      -0.07489800      -0.02525500
C        0.00000000       0.00000000      10.15000000      -0.00118300      -0.18918700      -0.03021400
C       -1.22999000       2.13040000      10.15000000      -0.16667100       0.09823600      -0.03273200
C       -2.46001000       4.26087000      10.15000000      -0.02964500      -0.02097000       0.01542500
C        2.45998000       0.00000000      10.15000000       0.18032300      -0.10085900       0.05531200
C        1.22999000       2.13040000      10.15000000       0.16641600       0.09907600      -0.03271700
C       -0.00004000       4.26087000      10.15000000       0.00437500       0.20181900       0.05346500
C        4.92002000       0.00000000      10.15000000      -0.18095600      -0.10190900       0.05531500
C        3.69004000       2.13040000      10.15000000      -0.00465600       0.03751200       0.01354300
C        2.46001000       4.26087000      10.15000000       0.02758000      -0.02117800       0.01542300
C        1.22999000       0.71013000      10.15000000       0.16501700      -0.09421000      -0.02944100
C        0.00000000       2.84053000      10.15000000       0.00122900       0.19377000      -0.03342200
C       -1.23002000       4.97100000      10.15000000       0.03659700       0.01539900       0.00853400
C        3.69004000       0.71013000      10.15000000      -0.00397300      -0.03578600       0.00843700
C        2.46005000       2.84053000      10.15000000       0.17076200       0.10312900       0.04754700
C        1.23002000       4.97100000      10.15000000      -0.03588100       0.01440000       0.00853100
C        6.15001000       0.71013000      10.15000000      -0.16231600      -0.09442300      -0.02941300
C        4.92002000       2.84053000      10.15000000      -0.17735900       0.10392900       0.04752700
C        3.69000000       4.97100000      10.15000000       0.00116800      -0.20348900       0.05161200
Li       0.00000000       1.42027000      12.00000000       0.00002100       0.00009600      -1.66113000
37
Lattice="7.380000114 0.0 0.0 -3.690000057 6.391267579 0.0 0.0 0.0 24.0" Properties=species:S:1:pos:R:3:forces:R:3 stress="-0.006846317601690472 5.883246502057559e-05 9.986414601413215e-08 5.883246502057559e-05 -0.006777966835252925 -2.3093583765768057e-07 9.986414601413215e-08 -2.3093583765768057e-07 0.0026851097089732293" free_energy=-336.39909317 energy=-336.39767449 pbc="T T T"
C        0.00000000       0.00000000      13.85059000       0.00111200      -0.22483700       0.42999100
C       -1.22999000       2.13040000      13.85071000      -0.19379100       0.11399300       0.43149900
C       -2.46001000       4.26087000      13.84845000      -0.02993600      -0.01932300      -0.09212800
C        2.45998000       0.00000000      13.84955000       0.03265800      -0.01803800       0.01033500
C        1.22999000       2.13040000      13.85071000       0.19570800       0.11418900       0.43142000
C       -0.00004000       4.26087000      13.84964000       0.00144100       0.03483600       0.01013000
C        4.92002000       0.00000000      13.84955000      -0.03215000      -0.01909700       0.01031600
C        3.69004000       2.13040000      13.84854000      -0.00127100       0.03658400      -0.09167500
C        2.46001000       4.26087000      13.84845000       0.03006500      -0.02013700      -0.09218500
C        0.00000000       1.42027000      13.93322000      -0.00106800       0.00075900      -0.28676200
C       -1.23002000       3.55073000      13.84898000      -0.00201900       0.15006900      -0.04096300
C       -2.46001000       5.68113000      13.84878000       0.12971600      -0.07665400      -0.04025400
C        2.45998000       1.42027000      13.84897000       0.13299100      -0.07232800      -0.04128600
C        1.22995000       3.55073000      13.84898000       0.00236900       0.15083900      -0.04120100
C       -0.00004000       5.68113000      13.84825000       0.00087500       0.00104200      -0.00098900
C        4.92002000       1.42027000      13.84897000      -0.13359400      -0.07332400      -0.04128500
C        3.69000000       3.55073000      13.84970000      -0.00116100      -0.00195700      -0.00398800
C        2.46001000       5.68113000      13.84878000      -0.13230300      -0.07685900      -0.04047200
C        0.00000000       0.00000000      10.14854000      -0.00119400      -0.22203300      -0.06335100
C       -1.22999000       2.13040000      10.14842000      -0.19402900       0.11284000      -0.06468400
C       -2.46001000       4.26087000      10.15074000      -0.03147900      -0.01953200       0.02387200
C        2.45998000       0.00000000      10.15267000       0.19022100      -0.10778700       0.01140100
C        1.22999000       2.13040000      10.14842000       0.19375100       0.11368400      -0.06466500
C       -0.00004000       4.26087000      10.15258000       0.00119800       0.21753600       0.01095400
C        4.92002000       0.00000000      10.15267000      -0.19087600      -0.10883600       0.01141800
C        3.69004000       2.13040000      10.15065000      -0.00150100       0.03659500       0.02404500
C        2.46001000       4.26087000      10.15074000       0.02939000      -0.01974000       0.02389300
C        1.22999000       0.71013000      10.14858000       0.19302900      -0.11034800      -0.06171400
C        0.00000000       2.84053000      10.14839000       0.00124200       0.22234000      -0.06056500
C       -1.23002000       4.97100000      10.15041000       0.03453800       0.01790500       0.02834000
C        3.69004000       0.71013000      10.15041000      -0.00079100      -0.03887600       0.02804700
C        2.46005000       2.84053000      10.15229000       0.18524300       0.10782700       0.01386400
C        1.23002000       4.97100000      10.15041000      -0.03379300       0.01690600       0.02835600
C        6.15001000       0.71013000      10.14858000      -0.19030600      -0.11056200      -0.06169400
C        4.92002000       2.84053000      10.15229000      -0.18548200       0.10862600       0.01385900
C        3.69000000       4.97100000      10.15249000       0.00118100      -0.21647100       0.01320300
Li       0.00000000       1.42027000      11.91986000       0.00001700       0.00016900      -0.36508100
37
Lattice="7.380000114 0.0 0.0 -3.690000057 6.391267579 0.0 0.0 0.0 24.0" Properties=species:S:1:pos:R:3:forces:R:3 stress="-0.006836855473855633 5.8882397093582655e-05 3.744905475529955e-08 5.8882397093582655e-05 -0.006771637944999279 1.185886733917819e-07 3.744905475529955e-08 1.185886733917819e-07 0.0028108698763506515" free_energy=-336.42020388 energy=-336.41885995 pbc="T T T"
C        0.00000000       0.00000000      13.86910000       0.00110600      -0.25565300       0.06306000
C       -1.22999000       2.13040000      13.86929000      -0.22050300       0.12939400       0.06244100
C       -2.46001000       4.26087000      13.84449000      -0.03472900      -0.02207400      -0.06414400
C        2.45998000       0.00000000      13.85000000       0.03425600      -0.01775800      -0.03656300
C        1.22999000       2.13040000      13.86928000       0.22241800       0.12960000       0.06232300
C       -0.00004000       4.26087000      13.85008000       0.00143000       0.03426800      -0.03879700
C        4.92002000       0.00000000      13.84999000      -0.03376700      -0.01881500      -0.03672700
C        3.69004000       2.13040000      13.84460000      -0.00128200       0.04210400      -0.06432500
C        2.46001000       4.26087000      13.84449000       0.03484000      -0.02289000      -0.06439800
C        0.00000000       1.42027000      13.92088000      -0.00107200       0.00065900       0.17632100
C       -1.23002000       3.55073000      13.84721000      -0.00121400       0.13812200       0.06918200
C       -2.46001000       5.68113000      13.84705000       0.11976000      -0.06999300       0.06907400
C        2.45998000       1.42027000      13.84720000       0.12223500      -0.06703100       0.06911400
C        1.22995000       3.55073000      13.84720000       0.00158800       0.13889400       0.06905100
C       -0.00004000       5.68113000      13.84820000       0.00088300       0.00103700      -0.04326300
C        4.92002000       1.42027000      13.84720000      -0.12281400      -0.06802600       0.06911400
C        3.69000000       3.55073000      13.84953000      -0.00115400      -0.00195300      -0.05368900
C        2.46001000       5.68113000      13.84704000      -0.12232600      -0.07020000       0.06894800
C        0.00000000       0.00000000      10.14582000      -0.00119600      -0.22835200      -0.05268200
C       -1.22999000       2.13040000      10.14564000      -0.19949500       0.11597800      -0.05269700
C       -2.46001000       4.26087000      10.15177000      -0.03163800      -0.01961000       0.02584000
C        2.45998000       0.00000000      10.15316000       0.19260600      -0.10915800       0.01186800
C        1.22999000       2.13040000      10.14564000       0.19921200       0.11682200      -0.05268200
C       -0.00004000       4.26087000      10.15305000       0.00119500       0.22031200       0.01214400
C        4.92002000       0.00000000      10.15316000      -0.19326500      -0.11020600       0.01190200
C        3.69004000       2.13040000      10.15169000      -0.00150400       0.03676900       0.02593700
C        2.46001000       4.26087000      10.15177000       0.02954400      -0.01981800       0.02587900
C        1.22999000       0.71013000      10.14592000       0.19834100      -0.11337800      -0.05284300
C        0.00000000       2.84053000      10.14578000       0.00124300       0.22845600      -0.05268200
C       -1.23002000       4.97100000      10.15163000       0.03465400       0.01796700       0.02586100
C        3.69004000       0.71013000      10.15161000      -0.00079000      -0.03899800       0.02582700
C        2.46005000       2.84053000      10.15289000       0.18742900       0.10907800       0.01067500
C        1.23002000       4.97100000      10.15163000      -0.03390600       0.01696800       0.02590100
C        6.15001000       0.71013000      10.14593000      -0.19561700      -0.11359100      -0.05282800
C        4.92002000       2.84053000      10.15289000      -0.18766600       0.10987700       0.01064900
C        3.69000000       4.97100000      10.15306000       0.00118300      -0.21899900       0.01074200
Li       0.00000000       1.42028000      11.90415000       0.00001600       0.00019900      -0.28353400
37
Lattice="7.380000114 0.0 0.0 -3.690000057 6.391267579 0.0 0.0 0.0 24.0" Properties=species:S:1:pos:R:3:forces:R:3 stress="-0.006921814896077155 5.890112162096031e-05 3.744905475529955e-08 5.890112162096031e-05 -0.006853576476803873 -1.2483018251766519e-08 3.744905475529955e-08 -1.2483018251766519e-08 0.002949905733638827" free_energy=-336.42907249 energy=-336.42781561 pbc="T T T"
C        0.00000000       0.00000000      13.87535000       0.00109000      -0.25274500       0.06194900
C       -1.22999000       2.13040000      13.87551000      -0.21798300       0.12791100       0.06156000
C       -2.46001000       4.26087000      13.84017000      -0.03450500      -0.02192600       0.01365900
C        2.45998000       0.00000000      13.84791000       0.03141100      -0.01732700       0.03050100
C        1.22999000       2.13040000      13.87550000       0.21987400       0.12812100       0.06146500
C       -0.00004000       4.26087000      13.84786000       0.00141800       0.03340200       0.03175400
C        4.92002000       0.00000000      13.84790000      -0.03093900      -0.01838100       0.03035200
C        3.69004000       2.13040000      13.84028000      -0.00129300       0.04182400       0.01354100
C        2.46001000       4.26087000      13.84016000       0.03459400      -0.02274100       0.01342300
C        0.00000000       1.42027000      13.92953000      -0.00105700       0.00072300       0.05615100
C       -1.23002000       3.55073000      13.85104000      -0.00206800       0.13521400       0.00284200
C       -2.46001000       5.68113000      13.85087000       0.11686800      -0.06926800       0.00375000
C        2.45998000       1.42027000      13.85101000       0.12014700      -0.06487200       0.00366100
C        1.22995000       3.55073000      13.85102000       0.00245800       0.13598100       0.00261600
C       -0.00004000       5.68113000      13.84566000       0.00089200       0.00101800      -0.08454000
C        4.92002000       1.42027000      13.85101000      -0.12070200      -0.06586600       0.00367100
C        3.69000000       3.55073000      13.84635000      -0.00114700      -0.00195000      -0.09247400
C        2.46001000       5.68113000      13.85085000      -0.11940600      -0.06947000       0.00353800
C        0.00000000       0.00000000      10.14234000      -0.00119700      -0.23691000      -0.04773700
C       -1.22999000       2.13040000      10.14216000      -0.20691100       0.12024500      -0.04744900
C       -2.46001000       4.26087000      10.15343000      -0.03175300      -0.01966900       0.02071500
C        2.45998000       0.00000000      10.15392000       0.19479700      -0.11042500       0.00899800
C        1.22999000       2.13040000      10.14216000       0.20662800       0.12108900      -0.04743000
C       -0.00004000       4.26087000      10.15383000       0.00119500       0.22285000       0.00926600
C        4.92002000       0.00000000      10.15393000      -0.19545800      -0.11147300       0.00904700
C        3.69004000       2.13040000      10.15335000      -0.00150600       0.03689600       0.02068400
C        2.46001000       4.26087000      10.15343000       0.02965600      -0.01987800       0.02078100
C        1.22999000       0.71013000      10.14245000       0.20568900      -0.11760700      -0.04725100
C        0.00000000       2.84053000      10.14233000       0.00124300       0.23693100      -0.04720500
C       -1.23002000       4.97100000      10.15332000       0.03474400       0.01801600       0.02123800
C        3.69004000       0.71013000      10.15330000      -0.00078900      -0.03909300       0.02124300
C        2.46005000       2.84053000      10.15360000       0.18958400       0.11031400       0.00855400
C        1.23002000       4.97100000      10.15332000      -0.03399200       0.01701700       0.02130600
C        6.15001000       0.71013000      10.14246000      -0.20296400      -0.11782000      -0.04723300
C        4.92002000       2.84053000      10.15360000      -0.18981900       0.11111400       0.00851000
C        3.69000000       4.97100000      10.15377000       0.00118400      -0.22147200       0.00864300
Li       0.00000000       1.42029000      11.88533000       0.00001500       0.00022700      -0.11209800
37
Lattice="7.380000114 0.0 0.0 -3.690000057 6.391267579 0.0 0.0 0.0 24.0" Properties=species:S:1:pos:R:3:forces:R:3 stress="-0.0069079462627994435 5.91258159494921e-05 -2.0846640480450085e-06 5.91258159494921e-05 -0.006844245420660679 2.8648526887804157e-06 -2.0846640480450085e-06 2.8648526887804157e-06 0.0030455818270294912" free_energy=-336.43221055 energy=-336.43097374 pbc="T T T"
C        0.00000000       0.00000000      13.87978000       0.00059700      -0.25385500       0.03128800
C       -1.22999000       2.13040000      13.87991000      -0.21937000       0.12838300       0.03072400
C       -2.46001000       4.26087000      13.84004000      -0.03527400      -0.02211200      -0.01683400
C        2.45998000       0.00000000      13.84904000       0.03123100      -0.01754200      -0.00212000
C        1.22999000       2.13040000      13.87990000       0.22028400       0.12859900       0.03063000
C       -0.00004000       4.26087000      13.84902000       0.00093100       0.03373500      -0.00192600
C        4.92002000       0.00000000      13.84902000      -0.03173000      -0.01859400      -0.00227700
C        3.69004000       2.13040000      13.84013000      -0.00177900       0.04210800      -0.01671400
C        2.46001000       4.26087000      13.84001000       0.03439000      -0.02292600      -0.01708200
C        0.00000000       1.42027000      13.93310000      -0.00153400       0.00075700       0.04089400
C       -1.23002000       3.55073000      13.85170000      -0.00240700       0.13192700       0.02485200
C       -2.46001000       5.68113000      13.85157000       0.11366400      -0.06757100       0.02515400
C        2.45998000       1.42027000      13.85171000       0.11681300      -0.06342700       0.02488900
C        1.22995000       3.55073000      13.85166000       0.00183300       0.13268800       0.02461400
C       -0.00004000       5.68113000      13.84130000       0.01618500      -0.00178900      -0.02086500
C        4.92002000       1.42027000      13.85171000      -0.11832500      -0.06441800       0.02489400
C        3.69000000       3.55073000      13.84152000      -0.00162700      -0.00197700      -0.03797900
C        2.46001000       5.68113000      13.85154000      -0.11715500      -0.06776800       0.02492300
C        0.00000000       0.00000000      10.13950000      -0.00168100      -0.24106600      -0.04978600
C       -1.22999000       2.13040000      10.13932000      -0.21078000       0.12215500      -0.02680800
C       -2.46001000       4.26087000      10.15469000      -0.03225000      -0.01971000       0.01649000
C        2.45998000       0.00000000      10.15448000       0.19502100      -0.11087200       0.00592300
C        1.22999000       2.13040000      10.13932000       0.21164200       0.12730400      -0.03063700
C       -0.00004000       4.26087000      10.15440000       0.00071100       0.22363200       0.00608800
C        4.92002000       0.00000000      10.15448000      -0.19664900      -0.11191800       0.00598200
C        3.69004000       2.13040000      10.15461000      -0.00199100       0.03687300       0.01642200
C        2.46001000       4.26087000      10.15469000       0.02918500      -0.01992000       0.01657500
C        1.22999000       0.71013000      10.13963000       0.20877700      -0.11971100      -0.04941700
C        0.00000000       2.84053000      10.13951000       0.00076000       0.24103600      -0.04926300
C       -1.23002000       4.97100000      10.15461000       0.03425800       0.01797900       0.01704000
C        3.69004000       0.71013000      10.15459000      -0.00127200      -0.03912000       0.01701700
C        2.46005000       2.84053000      10.15413000       0.18982200       0.11069100       0.00561800
C        1.23002000       4.97100000      10.15462000      -0.03447100       0.01698000       0.01712700
C        6.15001000       0.71013000      10.13963000      -0.20701900      -0.11992400      -0.04939300
C        4.92002000       2.84053000      10.15412000      -0.19102300       0.11149100       0.00556400
C        3.69000000       4.97100000      10.15430000       0.00070200      -0.22231900       0.00559500
Li       0.00000000       1.42030000      11.87673000      -0.00046900       0.00019800      -0.04720300
37
Lattice="7.380000114 0.0 0.0 -3.690000057 6.391267579 0.0 0.0 0.0 24.0" Properties=species:S:1:pos:R:3:forces:R:3 stress="-0.006917015175559352 5.907588387648504e-05 -2.4966036503533035e-07 5.907588387648504e-05 -0.00684662343563764 9.86158441889555e-07 -2.4966036503533035e-07 9.86158441889555e-07 0.0032744829327121337" free_energy=-336.43430153 energy=-336.43307683 pbc="T T T"
C        0.00000000       0.00000000      13.88593000       0.00106200      -0.25586500       0.01041600
C       -1.22999000       2.13040000      13.88601000      -0.22058300       0.12936400       0.01023600
C       -2.46001000       4.26087000      13.83798000      -0.03461400      -0.02195300      -0.00866200
C        2.45998000       0.00000000      13.84926000       0.03192200      -0.01759100       0.00427800
C        1.22999000       2.13040000      13.88598000       0.22244800       0.12959300       0.01011500
C       -0.00004000       4.26087000      13.84928000       0.00140400       0.03399900       0.00357900
C        4.92002000       0.00000000      13.84923000      -0.03145500      -0.01863200       0.00410200
C        3.69004000       2.13040000      13.83809000      -0.00129400       0.04191500      -0.00865400
C        2.46001000       4.26087000      13.83792000       0.03469400      -0.02276700      -0.00895700
C        0.00000000       1.42027000      13.93889000      -0.00102800       0.00100100       0.01960800
C       -1.23002000       3.55073000      13.85451000      -0.00274200       0.12967500       0.00043800
C       -2.46001000       5.68113000      13.85443000       0.11179200      -0.06712600       0.00036500
C        2.45998000       1.42027000      13.85454000       0.11575000      -0.06156700       0.00004600
C        1.22995000       3.55073000      13.85445000       0.00314300       0.13040800       0.00020100
C       -0.00004000       5.68113000      13.83702000       0.00088300       0.00093300       0.01091500
C        4.92002000       1.42027000      13.85454000      -0.11629000      -0.06255900       0.00005300
C        3.69000000       3.55073000      13.83541000      -0.00114000      -0.00191000       0.00607200
C        2.46001000       5.68113000      13.85438000      -0.11428500      -0.06731300       0.00013700
C        0.00000000       0.00000000      10.13322000      -0.00121800      -0.24542800      -0.02788800
C       -1.22999000       2.13040000      10.13510000      -0.21451700       0.12478600      -0.05115700
C       -2.46001000       4.26087000      10.15697000      -0.03175700      -0.01984400       0.01045000
C        2.45998000       0.00000000      10.15537000       0.19476700      -0.11053100      -0.00033900
C        1.22999000       2.13040000      10.13477000       0.21415800       0.12561000      -0.04707500
C       -0.00004000       4.26087000      10.15531000       0.00121400       0.22270400      -0.00162700
C        4.92002000       0.00000000      10.15538000      -0.19540000      -0.11158400      -0.00050000
C        3.69004000       2.13040000      10.15689000      -0.00147900       0.03706300       0.00924300
C        2.46001000       4.26087000      10.15698000       0.02966000      -0.02002300       0.01079800
C        1.22999000       0.71013000      10.13340000       0.21324400      -0.12211900      -0.01649400
C        0.00000000       2.84053000      10.13330000       0.00126700       0.24599800      -0.00562500
C       -1.23002000       4.97100000      10.15697000       0.03450200       0.01790100       0.01042400
C        3.69004000       0.71013000      10.15694000      -0.00078800      -0.03881000       0.01233400
C        2.46005000       2.84053000      10.15497000       0.19056500       0.11100600       0.00787900
C        1.23002000       4.97100000      10.15698000      -0.03374300       0.01689700       0.01014800
C        6.15001000       0.71013000      10.13341000      -0.21056300      -0.12238600      -0.01470000
C        4.92002000       2.84053000      10.15496000      -0.19097000       0.11187900       0.01016900
C        3.69000000       4.97100000      10.15514000       0.00116300      -0.22175000      -0.00387300
Li      -0.00004000       1.42033000      11.86609000       0.00023100      -0.00097200       0.03354600
37
Lattice="7.380000114 0.0 0.0 -3.690000057 6.391267579 0.0 0.0 0.0 24.0" Properties=species:S:1:pos:R:3:forces:R:3 stress="-0.006921028465927295 5.892608765746384e-05 -1.497962190211982e-07 5.892608765746384e-05 -0.0068508052467519814 4.812203536055992e-06 -1.497962190211982e-07 4.812203536055992e-06 0.0032775599967111942" free_energy=-336.43455144 energy=-336.43332557 pbc="T T T"
C        0.00000000       0.00000000      13.88602000       0.00105800      -0.25603300       0.01081000
C       -1.22999000       2.13040000      13.88609000      -0.22053500       0.12912100       0.01069200
C       -2.46001000       4.26087000      13.83773000      -0.03466300      -0.02218400      -0.00326200
C        2.45998000       0.00000000      13.84940000       0.03202100      -0.01787300       0.00523700
C        1.22999000       2.13040000      13.88606000       0.22240000       0.12935500       0.01059200
C       -0.00004000       4.26087000      13.84938000       0.00140800       0.03390200       0.00501000
C        4.92002000       0.00000000      13.84936000      -0.03155000      -0.01891500       0.00507500
C        3.69004000       2.13040000      13.83783000      -0.00129300       0.04177400      -0.00340700
C        2.46001000       4.26087000      13.83766000       0.03474200      -0.02299600      -0.00353500
C        0.00000000       1.42027000      13.93936000      -0.00103000       0.00832300       0.00735000
C       -1.23002000       3.55073000      13.85439000      -0.00268000       0.12960300       0.00117200
C       -2.46001000       5.68113000      13.85431000       0.11193100      -0.06733100       0.00137200
C        2.45998000       1.42027000      13.85440000       0.11582100      -0.06187100       0.00115100
C        1.22995000       3.55073000      13.85432000       0.00307600       0.13033600       0.00093700
C       -0.00004000       5.68113000      13.83770000       0.00088200       0.00073600       0.00554600
C        4.92002000       1.42027000      13.85441000      -0.11635900      -0.06286000       0.00115700
C        3.69000000       3.55073000      13.83600000      -0.00113900      -0.00212400      -0.00494300
C        2.46001000       5.68113000      13.85424000      -0.11442400      -0.06751300       0.00114500
C        0.00000000       0.00000000      10.13247000      -0.00120200      -0.24473100      -0.02067400
C       -1.22999000       2.13040000      10.13332000      -0.21379100       0.12407500      -0.02563200
C       -2.46001000       4.26087000      10.15726000      -0.03166300      -0.01986300       0.01036100
C        2.45998000       0.00000000      10.15530000       0.19464600      -0.11058300       0.00355000
C        1.22999000       2.13040000      10.13316000       0.21344100       0.12488800      -0.02466800
C       -0.00004000       4.26087000      10.15519000       0.00119900       0.22265600       0.00665300
C        4.92002000       0.00000000      10.15531000      -0.19533300      -0.11165100       0.00411700
C        3.69004000       2.13040000      10.15713000      -0.00149800       0.03665200       0.01295900
C        2.46001000       4.26087000      10.15728000       0.02956300      -0.02006200       0.00993700
C        1.22999000       0.71013000      10.13310000       0.21232900      -0.12169600      -0.02490400
C        0.00000000       2.84053000      10.13342000       0.00125300       0.24460500      -0.02498800
C       -1.23002000       4.97100000      10.15725000       0.03461400       0.01771300       0.00778300
C        3.69004000       0.71013000      10.15730000      -0.00078200      -0.03909500       0.00766400
C        2.46005000       2.84053000      10.15524000       0.18953900       0.11009200       0.00088600
C        1.23002000       4.97100000      10.15725000      -0.03385700       0.01671800       0.00792100
C        6.15001000       0.71013000      10.13317000      -0.20964200      -0.12194100      -0.02494100
C        4.92002000       2.84053000      10.15532000      -0.18982800       0.11091800       0.00075000
C        3.69000000       4.97100000      10.15495000       0.00118000      -0.22133200       0.00099500
Li      -0.00003000       1.42029000      11.86794000       0.00016300      -0.00080700       0.02013100
37