37
Lattice="7.380000114 0.0 0.0 -3.690000057 6.391267579 0.0 0.0 0.0 24.0" Properties=species:S:1:pos:R:3:forces:R:3 stress="-0.006980772191280249 5.209787667374755e-05 -1.2601606925158297e-05 5.209787667374755e-05 -0.0069206040433067335 7.2838411499057625e-06 -1.2601606925158297e-05 7.2838411499057625e-06 0.003453339618223445" free_energy=-336.36741987 energy=-336.36541145 pbc="T T T"
C        0.00000000       0.00000000      13.95000000       0.00118500      -0.27952300      -0.00676800
C       -1.22999000       2.13040000      13.95000000      -0.24193300       0.14282000      -0.00804400
C       -2.46001000       4.26087000      13.95000000      -0.03634700      -0.02535000      -0.00730700
C        2.45998000       0.00000000      13.95000000       0.03505600      -0.01830700       0.01586300
C        1.22999000       2.13040000      13.95000000       0.24399600       0.14302600      -0.00805000
C       -0.00004000       4.26087000      13.95000000       0.00466500       0.03342500       0.01416200
C        4.92002000       0.00000000      13.95000000      -0.03443600      -0.01936700       0.01586000
C        3.69004000       2.13040000      13.95000000      -0.00438400       0.04693500      -0.00904100
C        2.46001000       4.26087000      13.95000000       0.03659300      -0.02616700      -0.00731400
C        0.00000000       1.42027000      13.95000000      -0.00116400       0.00129900       1.05808100
C       -1.23002000       3.55073000      13.95000000      -0.00156700       0.14378500      -0.00805400
C       -2.46001000       5.68113000      13.95000000       0.12399800      -0.07658500      -0.00452900
C        2.45998000       1.42027000      13.95000000       0.13344900      -0.06587600      -0.00801200
C        1.22995000       3.55073000      13.95000000       0.00816400       0.14458900      -0.00803400
C       -0.00004000       5.68113000      13.95000000       0.00398600      -0.00087300      -0.02153000
C        4.92002000       1.42027000      13.95000000      -0.13416600      -0.06687500      -0.00800800
C        3.69000000       3.55073000      13.95000000      -0.00122000      -0.00547700       0.00896200
C        2.46001000       5.68113000      13.95000000      -0.12670900      -0.07680800      -0.00452800
C        0.00000000       0.00000000      10.05000000      -0.00119700      -0.16434900      -0.00568000
C       -1.22999000       2.13040000      10.05000000      -0.14506400       0.08568100      -0.00442000
C       -2.46001000       4.26087000      10.05000000      -0.02649500      -0.01892100      -0.01036500
C        2.45998000       0.00000000      10.05000000       0.17434100      -0.09753300       0.02836000
C        1.22999000       2.13040000      10.05000000       0.14478100       0.08652200      -0.00440000
C       -0.00004000       4.26087000      10.05000000       0.00436700       0.19515200       0.03010100
C        4.92002000       0.00000000      10.05000000      -0.17500500      -0.09858300       0.02836200
C        3.69004000       2.13040000      10.05000000      -0.00467200       0.03379000      -0.00867300
C        2.46001000       4.26087000      10.05000000       0.02439900      -0.01913200      -0.01036300
C        1.22999000       0.71013000      10.05000000       0.14367200      -0.08232100      -0.00223600
C        0.00000000       2.84053000      10.05000000       0.00124200       0.16939000       0.00125800
C       -1.23002000       4.97100000      10.05000000       0.03250800       0.01316200      -0.00801400
C        3.69004000       0.71013000      10.05000000      -0.00396100      -0.03108000      -0.00799700
C        2.46005000       2.84053000      10.05000000       0.16602300       0.10028600       0.02996600
C        1.23002000       4.97100000      10.05000000      -0.03176300       0.01216100      -0.00801200
C        6.15001000       0.71013000      10.05000000      -0.14094100      -0.08253500      -0.00220900
C        4.92002000       2.84053000      10.05000000      -0.17260200       0.10108200       0.02995200
C        3.69000000       4.97100000      10.05000000       0.00118000      -0.19747400       0.02645600
Li       0.00000000       1.42027000      12.00000000       0.00002100       0.00002900      -1.10579700
37
Lattice="7.380000114 0.0 0.0 -3.690000057 6.391267579 0.0 0.0 0.0 24.0" Properties=species:S:1:pos:R:3:forces:R:3 stress="-0.006995558326399465 5.875132540193911e-05 4.369056388118281e-08 5.875132540193911e-05 -0.00692791909200227 4.868377118188941e-07 4.369056388118281e-08 4.868377118188941e-07 0.004212731550551409" free_energy=-336.43298504 energy=-336.43114063 pbc="T T T"
C        0.00000000       0.00000000      13.94967000       0.00115500      -0.24639900       0.26454600
C       -1.22999000       2.13040000      13.94961000      -0.21218300       0.12440300       0.26393200
C       -2.46001000       4.26087000      13.94965000      -0.03219200      -0.02049100      -0.04896200
C        2.45998000       0.00000000      13.95077000       0.03209800      -0.01782900       0.00113900
C        1.22999000       2.13040000      13.94961000       0.21419000       0.12460700       0.26389000
C       -0.00004000       4.26087000      13.95068000       0.00147400       0.03429900       0.00152100
C        4.92002000       0.00000000      13.95077000      -0.03152200      -0.01888700       0.00113100
C        3.69004000       2.13040000      13.94956000      -0.00123700       0.03907600      -0.04917700
C        2.46001000       4.26087000      13.94965000       0.03239200      -0.02130900      -0.04898300
C        0.00000000       1.42027000      14.00104000      -0.00112500       0.00153200      -0.09423700
C       -1.23002000       3.55073000      13.94961000      -0.00412200       0.14778500      -0.02212100
C       -2.46001000       5.68113000      13.94978000       0.12620200      -0.07717300      -0.02358700
C        2.45998000       1.42027000      13.94961000       0.13188200      -0.06933900      -0.02197900
C        1.22995000       3.55073000      13.94961000       0.00441300       0.14857000      -0.02229200
C       -0.00004000       5.68113000      13.94896000       0.00083900       0.00094300       0.01780800
C        4.92002000       1.42027000      13.94961000      -0.13255300      -0.07033700      -0.02197200
C        3.69000000       3.55073000      13.95043000      -0.00119800      -0.00185900      -0.00513100
C        2.46001000       5.68113000      13.94978000      -0.12886500      -0.07739300      -0.02372200
C        0.00000000       0.00000000      10.04973000      -0.00120300      -0.17900700      -0.00720200
C       -1.22999000       2.13040000      10.04979000      -0.15674100       0.09117600      -0.00664800
C       -2.46001000       4.26087000      10.04950000      -0.02818200      -0.01746400       0.01749300
C        2.45998000       0.00000000      10.05137000       0.18022900      -0.10215900       0.00289500
C        1.22999000       2.13040000      10.04979000       0.15644400       0.09201800      -0.00663200
C       -0.00004000       4.26087000      10.05145000       0.00118600       0.20628100       0.00310900
C        4.92002000       0.00000000      10.05137000      -0.18090700      -0.10320800       0.00290100
C        3.69004000       2.13040000      10.04958000      -0.00151200       0.03267800       0.01710000
C        2.46001000       4.26087000      10.04950000       0.02607100      -0.01767500       0.01750100
C        1.22999000       0.71013000      10.04989000       0.15621700      -0.08957300      -0.00626600
C        0.00000000       2.84053000      10.05006000       0.00125100       0.18037300      -0.01959200
C       -1.23002000       4.97100000      10.04961000       0.03020400       0.01544700       0.01642700
C        3.69004000       0.71013000      10.04961000      -0.00078200      -0.03388500       0.01658700
C        2.46005000       2.84053000      10.05145000       0.17686400       0.10286800       0.00071300
C        1.23002000       4.97100000      10.04961000      -0.02944100       0.01444700       0.01643100
C        6.15001000       0.71013000      10.04989000      -0.15347200      -0.08978500      -0.00625100
C        4.92002000       2.84053000      10.05144000      -0.17708200       0.10366500       0.00070700
C        3.69000000       4.97100000      10.05128000       0.00118900      -0.20630800       0.00207600
Li       0.00000000       1.42027000      11.94665000       0.00001800      -0.00008900      -0.49315300
37
Lattice="7.380000114 0.0 0.0 -3.690000057 6.391267579 0.0 0.0 0.0 24.0" Properties=species:S:1:pos:R:3:forces:R:3 stress="-0.007098306049629757 5.881374049319794e-05 0.0 5.881374049319794e-05 -0.007029761796409306 1.497962190211982e-07 0.0 1.497962190211982e-07 0.004239058236044384" free_energy=-336.44899372 energy=-336.44728655 pbc="T T T"
C        0.00000000       0.00000000      13.96222000       0.00114100      -0.25789500       0.04775800
C       -1.22999000       2.13040000      13.96213000      -0.22221600       0.13029500       0.04847400
C       -2.46001000       4.26087000      13.94733000      -0.03454000      -0.02179800      -0.03636100
C        2.45998000       0.00000000      13.95082000       0.03141900      -0.01743300      -0.01202600
C        1.22999000       2.13040000      13.96212000       0.22420000       0.13050200       0.04839000
C       -0.00004000       4.26087000      13.95076000       0.00145900       0.03353400      -0.01170900
C        4.92002000       0.00000000      13.95082000      -0.03087200      -0.01849100      -0.01213100
C        3.69004000       2.13040000      13.94723000      -0.00124900       0.04173800      -0.03576200
C        2.46001000       4.26087000      13.94732000       0.03471100      -0.02261700      -0.03653300
C        0.00000000       1.42027000      13.99658000      -0.00111500       0.00161000       0.10630500
C       -1.23002000       3.55073000      13.94856000      -0.00467700       0.13924500       0.05071400
C       -2.46001000       5.68113000      13.94866000       0.11854000      -0.07341100       0.05026100
C        2.45998000       1.42027000      13.94857000       0.12480100      -0.06464200       0.05062800
C        1.22995000       3.55073000      13.94856000       0.00499500       0.14002900       0.05062600
C       -0.00004000       5.68113000      13.94981000       0.00085300       0.00092200      -0.02314300
C        4.92002000       1.42027000      13.94857000      -0.12544000      -0.06564000       0.05062500
C        3.69000000       3.55073000      13.95019000      -0.00118400      -0.00187500      -0.02814600
C        2.46001000       5.68113000      13.94866000      -0.12117300      -0.07363000       0.05018400
C        0.00000000       0.00000000      10.04938000      -0.00120500      -0.18639200      -0.01281400
C       -1.22999000       2.13040000      10.04947000      -0.16302400       0.09489800      -0.01633800
C       -2.46001000       4.26087000      10.05033000      -0.02867900      -0.01776300       0.00108500
C        2.45998000       0.00000000      10.05151000       0.18393200      -0.10436100       0.01303900
C        1.22999000       2.13040000      10.04947000       0.16272400       0.09574100      -0.01633500
C       -0.00004000       4.26087000      10.05160000       0.00118400       0.21039200       0.00864300
C        4.92002000       0.00000000      10.05151000      -0.18461200      -0.10541000       0.01305300
C        3.69004000       2.13040000      10.05039000      -0.00151300       0.03326300       0.00132100
C        2.46001000       4.26087000      10.05033000       0.02656600      -0.01797400       0.00109800
C        1.22999000       0.71013000      10.04960000       0.16246700      -0.09324000      -0.01217700
C        0.00000000       2.84053000      10.04913000       0.00125200       0.18735300      -0.00633700
C       -1.23002000       4.97100000      10.05039000       0.03060600       0.01575600       0.00260900
C        3.69004000       0.71013000      10.05040000      -0.00078100      -0.03443000       0.00214200
C        2.46005000       2.84053000      10.05148000       0.18054600       0.10500700       0.01263100
C        1.23002000       4.97100000      10.05039000      -0.02984100       0.01475600       0.00262200
C        6.15001000       0.71013000      10.04960000      -0.15972100      -0.09345200      -0.01217200
C        4.92002000       2.84053000      10.05148000      -0.18076000       0.10580400       0.01261500
C        3.69000000       4.97100000      10.05137000       0.00119000      -0.21049300       0.01273900
Li       0.00000000       1.42026000      11.92327000       0.00001700       0.00010100      -0.36557700
37
Lattice="7.380000114 0.0 0.0 -3.690000057 6.391267579 0.0 0.0 0.0 24.0" Properties=species:S:1:pos:R:3:forces:R:3 stress="-0.007103736162569275 5.891360463921208e-05 -6.241509125883259e-09 5.891360463921208e-05 -0.00703539787914998 1.810037646506145e-07 -6.241509125883259e-09 1.810037646506145e-07 0.004401655790282769" free_energy=-336.45957762 energy=-336.45812195 pbc="T T T"
C        0.00000000       0.00000000      13.96872000       0.00111600      -0.25574200       0.02515200
C       -1.22999000       2.13040000      13.96867000      -0.22039900       0.12927000       0.02577100
C       -2.46001000       4.26087000      13.94413000      -0.03407900      -0.02148200       0.04185800
C        2.45998000       0.00000000      13.94996000       0.03037100      -0.01684600       0.03909600
C        1.22999000       2.13040000      13.96867000       0.22233500       0.12947900       0.02570800
C       -0.00004000       4.26087000      13.94992000       0.00143400       0.03237400       0.03927300
C        4.92002000       0.00000000      13.94995000      -0.02987000      -0.01790100       0.03899200
C        3.69004000       2.13040000      13.94408000      -0.00127400       0.04116100       0.04234300
C        2.46001000       4.26087000      13.94412000       0.03420400      -0.02230200       0.04169500
C        0.00000000       1.42027000      14.00319000      -0.00109000       0.00141500       0.01444600
C       -1.23002000       3.55073000      13.95198000      -0.00529000       0.13416400       0.00541700
C       -2.46001000       5.68113000      13.95203000       0.11391600      -0.07149400       0.00499600
C        2.45998000       1.42027000      13.95198000       0.12080000      -0.06152900       0.00529600
C        1.22995000       3.55073000      13.95197000       0.00565900       0.13494700       0.00526500
C       -0.00004000       5.68113000      13.94833000       0.00087300       0.00091500      -0.05333400
C        4.92002000       1.42027000      13.95199000      -0.12138900      -0.06252700       0.00530400
C        3.69000000       3.55073000      13.94809000      -0.00116400      -0.00185800      -0.05159000
C        2.46001000       5.68113000      13.95202000      -0.11650000      -0.07171000       0.00485200
C        0.00000000       0.00000000      10.04837000      -0.00120400      -0.19753100      -0.02315500
C       -1.22999000       2.13040000      10.04821000      -0.17267300       0.10042400      -0.02244000
C       -2.46001000       4.26087000      10.05061000      -0.02905700      -0.01794300       0.00893600
C        2.45998000       0.00000000      10.05248000       0.18865500      -0.10706300       0.00069400
C        1.22999000       2.13040000      10.04821000       0.17237600       0.10126900      -0.02243000
C       -0.00004000       4.26087000      10.05226000       0.00118400       0.21593300       0.00205400
C        4.92002000       0.00000000      10.05248000      -0.18933300      -0.10811100       0.00071000
C        3.69004000       2.13040000      10.05068000      -0.00151200       0.03366200       0.00830700
C        2.46001000       4.26087000      10.05061000       0.02694500      -0.01815400       0.00896000
C        1.22999000       0.71013000      10.04864000       0.17203500      -0.09869200      -0.02525100
C        0.00000000       2.84053000      10.04845000       0.00125100       0.19838000      -0.02597600
C       -1.23002000       4.97100000      10.05077000       0.03103600       0.01596700       0.00729600
C        3.69004000       0.71013000      10.05075000      -0.00078100      -0.03490500       0.00900900
C        2.46005000       2.84053000      10.05240000       0.18505300       0.10758500      -0.00151900
C        1.23002000       4.97100000      10.05077000      -0.03027200       0.01496600       0.00731900
C        6.15001000       0.71013000      10.04864000      -0.16929300      -0.09890400      -0.02524300
C        4.92002000       2.84053000      10.05240000      -0.18526800       0.10838100      -0.00153000
C        3.69000000       4.97100000      10.05232000       0.00118900      -0.21579100       0.00048700
Li       0.00000000       1.42027000      11.89112000       0.00001700       0.00019400      -0.16677100
37
Lattice="7.380000114 0.0 0.0 -3.690000057 6.391267579 0.0 0.0 0.0 24.0" Properties=species:S:1:pos:R:3:forces:R:3 stress="-0.007145204749201642 5.896353671221914e-05 -0.0 5.896353671221914e-05 -0.007076679220508571 2.3093583765768057e-07 -0.0 2.3093583765768057e-07 0.0044641957117241195" free_energy=-336.46187359 energy=-336.46052396 pbc="T T T"
C        0.00000000       0.00000000      13.97157000       0.00110300      -0.25627900      -0.04852100
C       -1.22999000       2.13040000      13.97156000      -0.22089100       0.12955800      -0.04804800
C       -2.46001000       4.26087000      13.94533000      -0.03405100      -0.02147200       0.00544600
C        2.45998000       0.00000000      13.95156000       0.03018600      -0.01673500       0.00428800
C        1.22999000       2.13040000      13.97154000       0.22280500       0.12977000      -0.04811100
C       -0.00004000       4.26087000      13.95153000       0.00142400       0.03215300       0.00441200
C        4.92002000       0.00000000      13.95154000      -0.02970400      -0.01778900       0.00418400
C        3.69004000       2.13040000      13.94531000      -0.00128400       0.04112500       0.00578500
C        2.46001000       4.26087000      13.94531000       0.03415600      -0.02229200       0.00528000
C        0.00000000       1.42027000      14.00472000      -0.00108000       0.00134600       0.00239900
C       -1.23002000       3.55073000      13.95275000      -0.00532900       0.13127700       0.03404500
C       -2.46001000       5.68113000      13.95277000       0.11142700      -0.07011100       0.03363600
C        2.45998000       1.42027000      13.95274000       0.11834700      -0.06005700       0.03397400
C        1.22995000       3.55073000      13.95272000       0.00571700       0.13205900       0.03388900
C       -0.00004000       5.68113000      13.94576000       0.00088000       0.00092700       0.01506400
C        4.92002000       1.42027000      13.95275000      -0.11891300      -0.06105300       0.03397900
C        3.69000000       3.55073000      13.94543000      -0.00115400      -0.00183100       0.01609900
C        2.46001000       5.68113000      13.95274000      -0.11398700      -0.07032300       0.03348200
C        0.00000000       0.00000000      10.04716000      -0.00120400      -0.20239300      -0.02316600
C       -1.22999000       2.13040000      10.04699000      -0.17689500       0.10285800      -0.02304200
C       -2.46001000       4.26087000      10.05110000      -0.02925500      -0.01806000       0.01228900
C        2.45998000       0.00000000      10.05269000       0.19059900      -0.10819300       0.00511500
C        1.22999000       2.13040000      10.04699000       0.17660000       0.10370300      -0.02303200
C       -0.00004000       4.26087000      10.05247000       0.00118500       0.21817600       0.00573300
C        4.92002000       0.00000000      10.05269000      -0.19127500      -0.10924100       0.00513600
C        3.69004000       2.13040000      10.05114000      -0.00151100       0.03389400       0.01194700
C        2.46001000       4.26087000      10.05110000       0.02714500      -0.01827100       0.01231900
C        1.22999000       0.71013000      10.04734000       0.17622300      -0.10108200      -0.02330200
C        0.00000000       2.84053000      10.04713000       0.00125000       0.20319200      -0.02364200
C       -1.23002000       4.97100000      10.05120000       0.03121100       0.01607500       0.01282500
C        3.69004000       0.71013000      10.05124000      -0.00078100      -0.03511600       0.01355300
C        2.46005000       2.84053000      10.05249000       0.18700300       0.10871000       0.00492400
C        1.23002000       4.97100000      10.05120000      -0.03044800       0.01507400       0.01285700
C        6.15001000       0.71013000      10.04735000      -0.17348500      -0.10129400      -0.02329300
C        4.92002000       2.84053000      10.05249000      -0.18722000       0.10950700       0.00490600
C        3.69000000       4.97100000      10.05251000       0.00118800      -0.21804000       0.00606700
Li       0.00000000       1.42028000      11.87710000       0.00001700       0.00022800      -0.08947700
37
Lattice="7.380000114 0.0 0.0 -3.690000057 6.391267579 0.0 0.0 0.0 24.0" Properties=species:S:1:pos:R:3:forces:R:3 stress="-0.0071254690973456 5.8988502748722676e-05 1.2483018251766519e-08 5.8988502748722676e-05 -0.007056768806397004 2.3093583765768057e-07 1.2483018251766519e-08 2.3093583765768057e-07 0.0044946043441854225" free_energy=-336.46300087 energy=-336.46169349 pbc="T T T"
C        0.00000000       0.00000000      13.97025000       0.00109800      -0.25440800      -0.01101600
C       -1.22999000       2.13040000      13.97027000      -0.21928100       0.12862400      -0.01045500
C       -2.46001000       4.26087000      13.94596000      -0.03349400      -0.02115500       0.01453700
C        2.45998000       0.00000000      13.95220000       0.02988800      -0.01656000       0.01228600
C        1.22999000       2.13040000      13.97025000       0.22118600       0.12883600      -0.01050900
C       -0.00004000       4.26087000      13.95219000       0.00141900       0.03180700       0.01239400
C        4.92002000       0.00000000      13.95218000      -0.02941300      -0.01761300       0.01218900
C        3.69004000       2.13040000      13.94595000      -0.00128800       0.04048300       0.01481500
C        2.46001000       4.26087000      13.94593000       0.03359200      -0.02197600       0.01437900
C        0.00000000       1.42027000      14.00459000      -0.00107700       0.00132800      -0.04109100
C       -1.23002000       3.55073000      13.95425000      -0.00559200       0.13181500       0.01339300
C       -2.46001000       5.68113000      13.95424000       0.11179600      -0.07062900       0.01304100
C        2.45998000       1.42027000      13.95424000       0.11896400      -0.06009600       0.01334600
C        1.22995000       3.55073000      13.95422000       0.00598900       0.13259600       0.01326100
C       -0.00004000       5.68113000      13.94595000       0.00088300       0.00092300       0.02302100
C        4.92002000       1.42027000      13.95425000      -0.11952200      -0.06109200       0.01335200
C        3.69000000       3.55073000      13.94564000      -0.00115000      -0.00183800       0.01646600
C        2.46001000       5.68113000      13.95421000      -0.11434700      -0.07084000       0.01291300
C        0.00000000       0.00000000      10.04583000      -0.00120400      -0.20446800      -0.02606500
C       -1.22999000       2.13040000      10.04568000      -0.17870000       0.10391200      -0.02704700
C       -2.46001000       4.26087000      10.05181000      -0.02934400      -0.01810600       0.00878500
C        2.45998000       0.00000000      10.05292000       0.19120600      -0.10855300       0.00527700
C        1.22999000       2.13040000      10.04568000       0.17840400       0.10475800      -0.02703700
C       -0.00004000       4.26087000      10.05276000       0.00118500       0.21885200       0.00444400
C        4.92002000       0.00000000      10.05292000      -0.19188100      -0.10960000       0.00530500
C        3.69004000       2.13040000      10.05183000      -0.00151000       0.03399000       0.00873300
C        2.46001000       4.26087000      10.05181000       0.02723300      -0.01831700       0.00882500
C        1.22999000       0.71013000      10.04599000       0.17801200      -0.10209500      -0.02569600
C        0.00000000       2.84053000      10.04571000       0.00124900       0.20523600      -0.02468300
C       -1.23002000       4.97100000      10.05191000       0.03125400       0.01611700       0.00980500
C        3.69004000       0.71013000      10.05201000      -0.00078000      -0.03519400       0.00951700
C        2.46005000       2.84053000      10.05269000       0.18762700       0.10907600       0.00523400
C        1.23002000       4.97100000      10.05192000      -0.03049100       0.01511600       0.00984700
C        6.15001000       0.71013000      10.04599000      -0.17527400      -0.10230700      -0.02568600
C        4.92002000       2.84053000      10.05268000      -0.18784300       0.10987200       0.00520700
C        3.69000000       4.97100000      10.05278000       0.00118800      -0.21874200       0.00544600
Li       0.00001000       1.42029000      11.87030000       0.00001700       0.00024800      -0.05653200
37
Lattice="7.380000114 0.0 0.0 -3.690000057 6.391267579 0.0 0.0 0.0 24.0" Properties=species:S:1:pos:R:3:forces:R:3 stress="-0.0071287708556731924 5.902595180347797e-05 2.4966036503533037e-08 5.902595180347797e-05 -0.007060257809998372 3.3704149279769594e-07 2.4966036503533037e-08 3.3704149279769594e-07 0.004529569278308621" free_energy=-336.46446562 energy=-336.4632027 pbc="T T T"
C        0.00000000       0.00000000      13.96976000       0.00109300      -0.25587500       0.03158900
C       -1.22999000       2.13040000      13.96985000      -0.22058000       0.12936500       0.03187700
C       -2.46001000       4.26087000      13.94785000      -0.03331500      -0.02107500       0.00951800
C        2.45998000       0.00000000      13.95395000       0.02934800      -0.01624900       0.01875200
C        1.22999000       2.13040000      13.96982000       0.22247700       0.12957800       0.03184300
C       -0.00004000       4.26087000      13.95395000       0.00141500       0.03116500       0.01878000
C        4.92002000       0.00000000      13.95391000      -0.02888200      -0.01730100       0.01869400
C        3.69004000       2.13040000      13.94788000      -0.00129300       0.04028400       0.00962700
C        2.46001000       4.26087000      13.94780000       0.03340700      -0.02189800       0.00941000
C        0.00000000       1.42027000      13.99983000      -0.00107600       0.00139900      -0.01721900
C       -1.23002000       3.55073000      13.95599000      -0.00597200       0.13092300       0.00872500
C       -2.46001000       5.68113000      13.95594000       0.11088800      -0.07054200       0.00828400
C        2.45998000       1.42027000      13.95598000       0.11840300      -0.05933000       0.00869600
C        1.22995000       3.55073000      13.95594000       0.00637800       0.13170500       0.00862500
C       -0.00004000       5.68113000      13.94837000       0.00088600       0.00089500       0.01056000
C        4.92002000       1.42027000      13.95598000      -0.11895000      -0.06032600       0.00869300
C        3.69000000       3.55073000      13.94717000      -0.00114500      -0.00186400       0.00892800
C        2.46001000       5.68113000      13.95589000      -0.11343000      -0.07075100       0.00817900
C        0.00000000       0.00000000      10.04242000      -0.00120500      -0.20760800      -0.02427200
C       -1.22999000       2.13040000      10.04213000      -0.18147000       0.10547000      -0.02310400
C       -2.46001000       4.26087000      10.05292000      -0.02937000      -0.01809800       0.01136000
C        2.45998000       0.00000000      10.05363000       0.19175800      -0.10885700      -0.01325600
C        1.22999000       2.13040000      10.04214000       0.18117500       0.10631700      -0.02307800
C       -0.00004000       4.26087000      10.05334000       0.00118500       0.21958400      -0.01134100
C        4.92002000       0.00000000      10.05364000      -0.19243200      -0.10990500      -0.01321700
C        3.69004000       2.13040000      10.05294000      -0.00150900       0.03398600       0.01079600
C        2.46001000       4.26087000      10.05293000       0.02725900      -0.01831000       0.01142300
C        1.22999000       0.71013000      10.04262000       0.18071000      -0.10354700      -0.02599000
C        0.00000000       2.84053000      10.04249000       0.00124800       0.20828500      -0.02828300
C       -1.23002000       4.97100000      10.05315000       0.03125400       0.01609700      -0.00328400
C        3.69004000       0.71013000      10.05322000      -0.00078000      -0.03520200      -0.00252400
C        2.46005000       2.84053000      10.05338000       0.18805800       0.10931200      -0.01543100
C        1.23002000       4.97100000      10.05316000      -0.03049100       0.01509600      -0.00322200
C        6.15001000       0.71013000      10.04263000      -0.17797400      -0.10375800      -0.02596500
C        4.92002000       2.84053000      10.05337000      -0.18827600       0.11010800      -0.01546400
C        3.69000000       4.97100000      10.05351000       0.00118800      -0.21930500      -0.01436300
Li       0.00001000       1.42032000      11.86051000       0.00001700       0.00023300      -0.02434400
37