49
Lattice="8.52159977 0.0 0.0 -4.260799885 7.379921881 0.0 0.0 0.0 24.0" Properties=species:S:1:pos:R:3:forces:R:3 stress="-0.004747079629836526 3.226860218081644e-06 -0.0 3.226860218081644e-06 -0.004743372173415751 -0.0 -0.0 -0.0 0.0054576692023092085" free_energy=-447.94029633 energy=-447.93749464 pbc="T T T"
C        0.00000000       0.00000000      13.90000000      -0.08897200      -0.15410500      -0.03710500
C       -2.13040000       3.68996000      13.90000000      -0.01031700      -0.03701800      -0.00135400
C        4.26080000       0.00000000      13.90000000      -0.02690100      -0.02744100      -0.00135400
C        2.13040000       3.68996000      13.90000000       0.10168500       0.17611300       0.03125300
C        0.00000000       2.46002000      13.90000000      -0.19872500      -0.00054200       0.03239300
C       -2.13040000       6.14998000      13.90000000       0.04180600       0.00905300      -0.00019100
C        4.26080000       2.46002000      13.90000000       0.18251200      -0.00051400      -0.03593900
C        2.13040000       6.14998000      13.90000000       0.04179900      -0.01011400      -0.00019200
C        2.13044000       1.23001000      13.90000000       0.09889400      -0.17236100       0.03237700
C        0.00004000       4.91997000      13.90000000      -0.09170700       0.15781400      -0.03593900
C        6.39124000       1.23001000      13.90000000      -0.01306400       0.04073000      -0.00019100
C        4.26084000       4.91997000      13.90000000      -0.02965800       0.03113900      -0.00019200
C        7.10130000       2.46002000      13.90000000      -0.18034800      -0.00121800      -0.03615700
C       -3.55069000       6.14998000      13.90000000      -0.03963200       0.00836500      -0.00041300
C        2.84050000       2.46002000      13.90000000       0.20089500      -0.00120500       0.03219200
C        0.71010000       6.14998000      13.90000000      -0.03963600      -0.01079700      -0.00041200
C        0.71015000       1.23001000      13.90000000      -0.10123600      -0.17536300       0.03216300
C       -1.42025000       4.91997000      13.90000000       0.02733800       0.02818300      -0.00044000
C        4.97095000       1.23001000      13.90000000       0.01073600       0.03776400      -0.00044100
C        2.84055000       4.91997000      13.90000000       0.08940300       0.15485100      -0.03616700
C        2.84059000       0.00000000      13.90000000       0.08911400      -0.15678600      -0.03615800
C        0.71019000       3.68996000      13.90000000      -0.10148800       0.17339000       0.03220800
C        7.10139000       0.00000000      13.90000000       0.02706000      -0.03014300      -0.00041300
C        4.97099000       3.68996000      13.90000000       0.01046800      -0.03972400      -0.00041200
C        0.00000000       0.00000000      10.10000000      -0.08897200      -0.15410500       0.03710500
C       -2.13040000       3.68996000      10.10000000      -0.01031700      -0.03701800       0.00135400
C        4.26080000       0.00000000      10.10000000      -0.02690100      -0.02744100       0.00135400
C        2.13040000       3.68996000      10.10000000       0.10168500       0.17611300      -0.03125300
C        0.00000000       2.46002000      10.10000000      -0.19872500      -0.00054200      -0.03239300
C       -2.13040000       6.14998000      10.10000000       0.04180600       0.00905300       0.00019100
C        4.26080000       2.46002000      10.10000000       0.18251200      -0.00051400       0.03593900
C        2.13040000       6.14998000      10.10000000       0.04179900      -0.01011400       0.00019200
C        2.13044000       1.23001000      10.10000000       0.09889400      -0.17236100      -0.03237700
C        0.00004000       4.91997000      10.10000000      -0.09170700       0.15781400       0.03593900
C        6.39124000       1.23001000      10.10000000      -0.01306400       0.04073000       0.00019100
C        4.26084000       4.91997000      10.10000000      -0.02965800       0.03113900       0.00019200
C        7.10130000       2.46002000      10.10000000      -0.18034800      -0.00121800       0.03615700
C       -3.55069000       6.14998000      10.10000000      -0.03963200       0.00836500       0.00041300
C        2.84050000       2.46002000      10.10000000       0.20089500      -0.00120500      -0.03219200
C        0.71010000       6.14998000      10.10000000      -0.03963600      -0.01079700       0.00041200
C        0.71015000       1.23001000      10.10000000      -0.10123600      -0.17536300      -0.03216300
C       -1.42025000       4.91997000      10.10000000       0.02733800       0.02818300       0.00044000
C        4.97095000       1.23001000      10.10000000       0.01073600       0.03776400       0.00044100
C        2.84055000       4.91997000      10.10000000       0.08940300       0.15485100       0.03616700
C        2.84059000       0.00000000      10.10000000       0.08911400      -0.15678600       0.03615800
C        0.71019000       3.68996000      10.10000000      -0.10148800       0.17339000      -0.03220800
C        7.10139000       0.00000000      10.10000000       0.02706000      -0.03014300       0.00041300
C        4.97099000       3.68996000      10.10000000       0.01046800      -0.03972400       0.00041200
Li       1.42025000       2.46002000      12.00000000      -0.00004900      -0.00013800      -0.00000000
49
Lattice="8.52159977 0.0 0.0 -4.260799885 7.379921881 0.0 0.0 0.0 24.0" Properties=species:S:1:pos:R:3:forces:R:3 stress="-0.004748970807101668 3.201894181578111e-06 -0.0 3.201894181578111e-06 -0.0047452758336991455 -0.0 -0.0 -0.0 0.005472573926101818" free_energy=-447.94132711 energy=-447.93852709 pbc="T T T"
C        0.00000000       0.00000000      13.89821000      -0.08895800      -0.15408100      -0.01189000
C       -2.13040000       3.68996000      13.89993000      -0.01034600      -0.03682700      -0.00934700
C        4.26080000       0.00000000      13.89993000      -0.02672000      -0.02737100      -0.00934800
C        2.13040000       3.68996000      13.90151000       0.10154900       0.17587200       0.02263200
C        0.00000000       2.46002000      13.90156000      -0.19844500      -0.00053600       0.02323300
C       -2.13040000       6.14998000      13.89999000       0.04165600       0.00893700      -0.00875200
C        4.26080000       2.46002000      13.89827000       0.18247600      -0.00051500      -0.01112800
C        2.13040000       6.14998000      13.89999000       0.04165300      -0.01000200      -0.00874500
C        2.13044000       1.23001000      13.90156000       0.09876000      -0.17211500       0.02322200
C        0.00004000       4.91997000      13.89827000      -0.09169000       0.15778300      -0.01112300
C        6.39124000       1.23001000      13.89999000      -0.01308800       0.04054400      -0.00875200
C        4.26084000       4.91997000      13.89999000      -0.02948900       0.03106800      -0.00874600
C        7.10130000       2.46002000      13.89826000      -0.18029300      -0.00126100      -0.01151100
C       -3.55069000       6.14998000      13.89998000      -0.03948400       0.00825200      -0.00902200
C        2.84050000       2.46002000      13.90155000       0.20059500      -0.00117900       0.02294600
C        0.71010000       6.14998000      13.89998000      -0.03948800      -0.01068000      -0.00902900
C        0.71015000       1.23001000      13.90155000      -0.10111500      -0.17515100       0.02288900
C       -1.42025000       4.91997000      13.89998000       0.02716200       0.02811100      -0.00903400
C        4.97095000       1.23001000      13.89998000       0.01076100       0.03757700      -0.00903500
C        2.84055000       4.91997000      13.89826000       0.08941800       0.15487500      -0.01146900
C        2.84059000       0.00000000      13.89826000       0.08904900      -0.15675800      -0.01151600
C        0.71019000       3.68996000      13.90155000      -0.10131600       0.17314300       0.02295600
C        7.10139000       0.00000000      13.89998000       0.02688800      -0.03007100      -0.00902100
C        4.97099000       3.68996000      13.89998000       0.01049500      -0.03953700      -0.00902900
C        0.00000000       0.00000000      10.10179000      -0.08895800      -0.15408100       0.01189000
C       -2.13040000       3.68996000      10.10007000      -0.01034600      -0.03682700       0.00934700
C        4.26080000       0.00000000      10.10007000      -0.02672000      -0.02737100       0.00934800
C        2.13040000       3.68996000      10.09849000       0.10154900       0.17587200      -0.02263200
C        0.00000000       2.46002000      10.09844000      -0.19844500      -0.00053600      -0.02323300
C       -2.13040000       6.14998000      10.10001000       0.04165600       0.00893700       0.00875200
C        4.26080000       2.46002000      10.10173000       0.18247600      -0.00051500       0.01112800
C        2.13040000       6.14998000      10.10001000       0.04165300      -0.01000200       0.00874500
C        2.13044000       1.23001000      10.09844000       0.09876000      -0.17211500      -0.02322200
C        0.00004000       4.91997000      10.10173000      -0.09169000       0.15778300       0.01112300
C        6.39124000       1.23001000      10.10001000      -0.01308800       0.04054400       0.00875200
C        4.26084000       4.91997000      10.10001000      -0.02948900       0.03106800       0.00874600
C        7.10130000       2.46002000      10.10174000      -0.18029300      -0.00126100       0.01151100
C       -3.55069000       6.14998000      10.10002000      -0.03948400       0.00825200       0.00902200
C        2.84050000       2.46002000      10.09845000       0.20059500      -0.00117900      -0.02294600
C        0.71010000       6.14998000      10.10002000      -0.03948800      -0.01068000       0.00902900
C        0.71015000       1.23001000      10.09845000      -0.10111500      -0.17515100      -0.02288900
C       -1.42025000       4.91997000      10.10002000       0.02716200       0.02811100       0.00903400
C        4.97095000       1.23001000      10.10002000       0.01076100       0.03757700       0.00903500
C        2.84055000       4.91997000      10.10174000       0.08941800       0.15487500       0.01146900
C        2.84059000       0.00000000      10.10174000       0.08904900      -0.15675800       0.01151600
C        0.71019000       3.68996000      10.09845000      -0.10131600       0.17314300      -0.02295600
C        7.10139000       0.00000000      10.10002000       0.02688800      -0.03007100       0.00902100
C        4.97099000       3.68996000      10.10002000       0.01049500      -0.03953700       0.00902900
Li       1.42025000       2.46002000      12.00000000      -0.00006000      -0.00015200       0.00000000
49
Lattice="8.52159977 0.0 0.0 -4.260799885 7.379921881 0.0 0.0 0.0 24.0" Properties=species:S:1:pos:R:3:forces:R:3 stress="-0.004749376505194852 3.1956526724522288e-06 -0.0 3.1956526724522288e-06 -0.004745681531792329 -0.0 -0.0 -0.0 0.005484801042479424" free_energy=-447.94196348 energy=-447.93916472 pbc="T T T"
C        0.00000000       0.00000000      13.89740000      -0.08891300      -0.15400300      -0.00222100
C       -2.13040000       3.68996000      13.89930000      -0.01038200      -0.03665600      -0.01325200
C        4.26080000       0.00000000      13.89930000      -0.02655400      -0.02731600      -0.01325500
C        2.13040000       3.68996000      13.90304000       0.10147500       0.17574400       0.01925600
C        0.00000000       2.46002000      13.90314000      -0.19829900      -0.00052900       0.01947100
C       -2.13040000       6.14998000      13.89940000       0.04152800       0.00882200      -0.01289800
C        4.26080000       2.46002000      13.89751000       0.18238100      -0.00051400      -0.00196700
C        2.13040000       6.14998000      13.89940000       0.04152700      -0.00989100      -0.01286900
C        2.13044000       1.23001000      13.90314000       0.09869400      -0.17198600       0.01946300
C        0.00004000       4.91997000      13.89751000      -0.09164100       0.15770000      -0.00196100
C        6.39124000       1.23001000      13.89940000      -0.01312300       0.04037600      -0.01289600
C        4.26084000       4.91997000      13.89940000      -0.02933000       0.03101500      -0.01287000
C        7.10130000       2.46002000      13.89748000      -0.18018100      -0.00128200      -0.00191800
C       -3.55069000       6.14998000      13.89937000      -0.03934900       0.00812500      -0.01295000
C        2.84050000       2.46002000      13.90311000       0.20043300      -0.00115500       0.01949100
C        0.71010000       6.14998000      13.89937000      -0.03935200      -0.01058000      -0.01288500
C        0.71015000       1.23001000      13.90310000      -0.10106000      -0.17505600       0.01938500
C       -1.42025000       4.91997000      13.89937000       0.02700600       0.02807000      -0.01287000
C        4.97095000       1.23001000      13.89937000       0.01080400       0.03742100      -0.01287300
C        2.84055000       4.91997000      13.89748000       0.08938400       0.15481700      -0.00194600
C        2.84059000       0.00000000      13.89748000       0.08897500      -0.15667200      -0.00192300
C        0.71019000       3.68996000      13.90311000      -0.10121500       0.17301400       0.01949900
C        7.10139000       0.00000000      13.89937000       0.02671100      -0.03001800      -0.01294900
C        4.97099000       3.68996000      13.89937000       0.01051400      -0.03936900      -0.01288700
C        0.00000000       0.00000000      10.10260000      -0.08891300      -0.15400300       0.00222100
C       -2.13040000       3.68996000      10.10070000      -0.01038200      -0.03665600       0.01325200
C        4.26080000       0.00000000      10.10070000      -0.02655400      -0.02731600       0.01325500
C        2.13040000       3.68996000      10.09696000       0.10147500       0.17574400      -0.01925600
C        0.00000000       2.46002000      10.09686000      -0.19829900      -0.00052900      -0.01947100
C       -2.13040000       6.14998000      10.10060000       0.04152800       0.00882200       0.01289800
C        4.26080000       2.46002000      10.10249000       0.18238100      -0.00051400       0.00196700
C        2.13040000       6.14998000      10.10060000       0.04152700      -0.00989100       0.01286900
C        2.13044000       1.23001000      10.09686000       0.09869400      -0.17198600      -0.01946300
C        0.00004000       4.91997000      10.10249000      -0.09164100       0.15770000       0.00196100
C        6.39124000       1.23001000      10.10060000      -0.01312300       0.04037600       0.01289600
C        4.26084000       4.91997000      10.10060000      -0.02933000       0.03101500       0.01287000
C        7.10130000       2.46002000      10.10252000      -0.18018100      -0.00128200       0.00191800
C       -3.55069000       6.14998000      10.10063000      -0.03934900       0.00812500       0.01295000
C        2.84050000       2.46002000      10.09689000       0.20043300      -0.00115500      -0.01949100
C        0.71010000       6.14998000      10.10063000      -0.03935200      -0.01058000       0.01288500
C        0.71015000       1.23001000      10.09690000      -0.10106000      -0.17505600      -0.01938500
C       -1.42025000       4.91997000      10.10063000       0.02700600       0.02807000       0.01287000
C        4.97095000       1.23001000      10.10063000       0.01080400       0.03742100       0.01287300
C        2.84055000       4.91997000      10.10252000       0.08938400       0.15481700       0.00194600
C        2.84059000       0.00000000      10.10252000       0.08897500      -0.15667200       0.00192300
C        0.71019000       3.68996000      10.09689000      -0.10121500       0.17301400      -0.01949900
C        7.10139000       0.00000000      10.10063000       0.02671100      -0.03001800       0.01294900
C        4.97099000       3.68996000      10.10063000       0.01051400      -0.03936900       0.01288700
Li       1.42025000       2.46001000      12.00000000      -0.00006400      -0.00015600      -0.00000000
49
Lattice="8.52159977 0.0 0.0 -4.260799885 7.379921881 0.0 0.0 0.0 24.0" Properties=species:S:1:pos:R:3:forces:R:3 stress="-0.0047492891240670885 3.1956526724522288e-06 -0.0 3.1956526724522288e-06 -0.004745594150664566 -0.0 -0.0 -0.0 0.0054903435025832085" free_energy=-447.94232782 energy=-447.93952951 pbc="T T T"
C        0.00000000       0.00000000      13.89734000      -0.08888600      -0.15395600      -0.00288800
C       -2.13040000       3.68996000      13.89875000      -0.01039900      -0.03656800      -0.01356500
C        4.26080000       0.00000000      13.89875000      -0.02646900      -0.02728700      -0.01356900
C        2.13040000       3.68996000      13.90382000       0.10143400       0.17567500       0.01955500
C        0.00000000       2.46002000      13.90392000      -0.19821900      -0.00052600       0.01967000
C       -2.13040000       6.14998000      13.89886000       0.04146200       0.00876200      -0.01336100
C        4.26080000       2.46002000      13.89745000       0.18232600      -0.00051400      -0.00265900
C        2.13040000       6.14998000      13.89887000       0.04146100      -0.00983200      -0.01336000
C        2.13044000       1.23001000      13.90392000       0.09865600      -0.17191600       0.01966300
C        0.00004000       4.91997000      13.89745000      -0.09161400       0.15765300      -0.00265300
C        6.39124000       1.23001000      13.89886000      -0.01314300       0.04028900      -0.01335900
C        4.26084000       4.91997000      13.89887000      -0.02924500       0.03098700      -0.01336200
C        7.10130000       2.46002000      13.89742000      -0.18012800      -0.00128300      -0.00276500
C       -3.55069000       6.14998000      13.89883000      -0.03927600       0.00805200      -0.01350100
C        2.84050000       2.46002000      13.90389000       0.20034600      -0.00114100       0.01961200
C        0.71010000       6.14998000      13.89884000      -0.03927800      -0.01053400      -0.01349200
C        0.71015000       1.23001000      13.90388000      -0.10103200      -0.17500600       0.01956900
C       -1.42025000       4.91997000      13.89883000       0.02692700       0.02805500      -0.01345800
C        4.97095000       1.23001000      13.89883000       0.01083100       0.03734600      -0.01346200
C        2.84055000       4.91997000      13.89742000       0.08935900       0.15477400      -0.00272300
C        2.84059000       0.00000000      13.89742000       0.08894800      -0.15662600      -0.00277000
C        0.71019000       3.68996000      13.90389000      -0.10115900       0.17294500       0.01961900
C        7.10139000       0.00000000      13.89883000       0.02661100      -0.02999100      -0.01350000
C        4.97099000       3.68996000      13.89884000       0.01051700      -0.03928200      -0.01349400
C        0.00000000       0.00000000      10.10266000      -0.08888600      -0.15395600       0.00288800
C       -2.13040000       3.68996000      10.10125000      -0.01039900      -0.03656800       0.01356500
C        4.26080000       0.00000000      10.10125000      -0.02646900      -0.02728700       0.01356900
C        2.13040000       3.68996000      10.09618000       0.10143400       0.17567500      -0.01955500
C        0.00000000       2.46002000      10.09608000      -0.19821900      -0.00052600      -0.01967000
C       -2.13040000       6.14998000      10.10114000       0.04146200       0.00876200       0.01336100
C        4.26080000       2.46002000      10.10255000       0.18232600      -0.00051400       0.00265900
C        2.13040000       6.14998000      10.10113000       0.04146100      -0.00983200       0.01336000
C        2.13044000       1.23001000      10.09608000       0.09865600      -0.17191600      -0.01966300
C        0.00004000       4.91997000      10.10255000      -0.09161400       0.15765300       0.00265300
C        6.39124000       1.23001000      10.10114000      -0.01314300       0.04028900       0.01335900
C        4.26084000       4.91997000      10.10113000      -0.02924500       0.03098700       0.01336200
C        7.10130000       2.46002000      10.10258000      -0.18012800      -0.00128300       0.00276500
C       -3.55069000       6.14998000      10.10117000      -0.03927600       0.00805200       0.01350100
C        2.84050000       2.46002000      10.09611000       0.20034600      -0.00114100      -0.01961200
C        0.71010000       6.14998000      10.10116000      -0.03927800      -0.01053400       0.01349200
C        0.71015000       1.23001000      10.09612000      -0.10103200      -0.17500600      -0.01956900
C       -1.42025000       4.91997000      10.10117000       0.02692700       0.02805500       0.01345800
C        4.97095000       1.23001000      10.10117000       0.01083100       0.03734600       0.01346200
C        2.84055000       4.91997000      10.10258000       0.08935900       0.15477400       0.00272300
C        2.84059000       0.00000000      10.10258000       0.08894800      -0.15662600       0.00277000
C        0.71019000       3.68996000      10.09611000      -0.10115900       0.17294500      -0.01961900
C        7.10139000       0.00000000      10.10117000       0.02661100      -0.02999100       0.01350000
C        4.97099000       3.68996000      10.10116000       0.01051700      -0.03928200       0.01349400
Li       1.42024000       2.46000000      12.00000000      -0.00006200      -0.00015100      -0.00000000
49
Lattice="8.52159977 0.0 0.0 -4.260799885 7.379921881 0.0 0.0 0.0 24.0" Properties=species:S:1:pos:R:3:forces:R:3 stress="-0.004723037336683624 3.220618708955761e-06 -0.0 3.220618708955761e-06 -0.004719323638753723 -0.0 -0.0 -0.0 0.005073267138264312" free_energy=-447.93671451 energy=-447.93390855 pbc="T T T"
C        0.00000000       0.00000000      13.89891000      -0.08875400      -0.15372800       0.00358200
C       -2.13040000       3.68996000      13.90763000      -0.00954100      -0.03849600      -0.02093600
C        4.26080000       0.00000000      13.90763000      -0.02856700      -0.02750600      -0.02093600
C        2.13040000       3.68996000      13.89137000       0.10336300       0.17900800       0.03539000
C        0.00000000       2.46002000      13.89143000      -0.20203700      -0.00054900       0.03626900
C       -2.13040000       6.14998000      13.90764000       0.04269000       0.01047100      -0.02003900
C        4.26080000       2.46002000      13.89891000       0.18209200      -0.00051500       0.00492300
C        2.13040000       6.14998000      13.90764000       0.04269400      -0.01154400      -0.02013700
C        2.13044000       1.23001000      13.89143000       0.10054500      -0.17522700       0.03625400
C        0.00004000       4.91997000      13.89890000      -0.09150100       0.15745500       0.00492800
C        6.39124000       1.23001000      13.90764000      -0.01227600       0.04220800      -0.02003900
C        4.26084000       4.91997000      13.90764000      -0.03134600       0.03119800      -0.02013800
C        7.10130000       2.46002000      13.89894000      -0.17989500      -0.00124900       0.00343300
C       -3.55069000       6.14998000      13.90770000      -0.04059900       0.00993500      -0.02182000
C        2.84050000       2.46002000      13.89144000       0.20434300      -0.00145400       0.03526800
C        0.71010000       6.14998000      13.90770000      -0.04060900      -0.01209800      -0.02200400
C        0.71015000       1.23001000      13.89145000      -0.10274300      -0.17797700       0.03540300
C       -1.42025000       4.91997000      13.90768000       0.02894800       0.02810800      -0.02169700
C        4.97095000       1.23001000      13.90768000       0.00986500       0.03912000      -0.02169500
C        2.84055000       4.91997000      13.89891000       0.08921500       0.15452400       0.00349700
C        2.84059000       0.00000000      13.89895000       0.08885700      -0.15640200       0.00342800
C        0.71019000       3.68996000      13.89143000      -0.10342800       0.17625600       0.03528600
C        7.10139000       0.00000000      13.90770000       0.02890300      -0.03019700      -0.02182300
C        4.97099000       3.68996000      13.90770000       0.00982900      -0.04121600      -0.02200300
C        0.00000000       0.00000000      10.10109000      -0.08875400      -0.15372800      -0.00358200
C       -2.13040000       3.68996000      10.09237000      -0.00954100      -0.03849600       0.02093600
C        4.26080000       0.00000000      10.09237000      -0.02856700      -0.02750600       0.02093600
C        2.13040000       3.68996000      10.10863000       0.10336300       0.17900800      -0.03539000
C        0.00000000       2.46002000      10.10857000      -0.20203700      -0.00054900      -0.03626900
C       -2.13040000       6.14998000      10.09236000       0.04269000       0.01047100       0.02003900
C        4.26080000       2.46002000      10.10109000       0.18209200      -0.00051500      -0.00492300
C        2.13040000       6.14998000      10.09236000       0.04269400      -0.01154400       0.02013700
C        2.13044000       1.23001000      10.10857000       0.10054500      -0.17522700      -0.03625400
C        0.00004000       4.91997000      10.10110000      -0.09150100       0.15745500      -0.00492800
C        6.39124000       1.23001000      10.09236000      -0.01227600       0.04220800       0.02003900
C        4.26084000       4.91997000      10.09236000      -0.03134600       0.03119800       0.02013800
C        7.10130000       2.46002000      10.10106000      -0.17989500      -0.00124900      -0.00343300
C       -3.55069000       6.14998000      10.09230000      -0.04059900       0.00993500       0.02182000
C        2.84050000       2.46002000      10.10856000       0.20434300      -0.00145400      -0.03526800
C        0.71010000       6.14998000      10.09230000      -0.04060900      -0.01209800       0.02200400
C        0.71015000       1.23001000      10.10855000      -0.10274300      -0.17797700      -0.03540300
C       -1.42025000       4.91997000      10.09232000       0.02894800       0.02810800       0.02169700
C        4.97095000       1.23001000      10.09232000       0.00986500       0.03912000       0.02169500
C        2.84055000       4.91997000      10.10109000       0.08921500       0.15452400      -0.00349700
C        2.84059000       0.00000000      10.10105000       0.08885700      -0.15640200      -0.00342800
C        0.71019000       3.68996000      10.10857000      -0.10342800       0.17625600      -0.03528600
C        7.10139000       0.00000000      10.09230000       0.02890300      -0.03019700       0.02182300
C        4.97099000       3.68996000      10.09230000       0.00982900      -0.04121600       0.02200300
Li       1.42028000       2.46010000      12.00000000      -0.00009800      -0.00024400       0.00000000
49
Lattice="8.52159977 0.0 0.0 -4.260799885 7.379921881 0.0 0.0 0.0 24.0" Properties=species:S:1:pos:R:3:forces:R:3 stress="-0.004907461448335222 3.208135690703995e-06 -0.0 3.208135690703995e-06 -0.004903747750405322 -0.0 -0.0 -0.0 0.005312760084933577" free_energy=-447.94594144 energy=-447.94314699 pbc="T T T"
C        0.00000000       0.00000000      13.89494000      -0.08721200      -0.15105500      -0.00632800
C       -2.13040000       3.68996000      13.88793000      -0.00992600      -0.03554500      -0.00589900
C        4.26080000       0.00000000      13.88793000      -0.02582000      -0.02636800      -0.00590500
C        2.13040000       3.68996000      13.91870000       0.10250300       0.17753200      -0.01256900
C        0.00000000       2.46002000      13.91882000      -0.20047900      -0.00050900      -0.01396300
C       -2.13040000       6.14998000      13.88813000       0.04034400       0.00861900      -0.00675800
C        4.26080000       2.46002000      13.89515000       0.17901500      -0.00051000      -0.00681900
C        2.13040000       6.14998000      13.88814000       0.04032400      -0.00968500      -0.00662800
C        2.13044000       1.23001000      13.91882000       0.09980100      -0.17387000      -0.01396500
C        0.00004000       4.91997000      13.89516000      -0.08995200       0.15478200      -0.00681400
C        6.39124000       1.23001000      13.88813000      -0.01270700       0.03924800      -0.00675500
C        4.26084000       4.91997000      13.88814000      -0.02855000       0.03007700      -0.00663100
C        7.10130000       2.46002000      13.89511000      -0.17678700      -0.00131300      -0.00741300
C       -3.55069000       6.14998000      13.88808000      -0.03798400       0.00761400      -0.00700500
C        2.84050000       2.46002000      13.91880000       0.20248200      -0.00097400      -0.01391600
C        0.71010000       6.14998000      13.88809000      -0.03798200      -0.01070200      -0.00705100
C        0.71015000       1.23001000      13.91876000      -0.10225600      -0.17712100      -0.01398400
C       -1.42025000       4.91997000      13.88811000       0.02640200       0.02744800      -0.00726800
C        4.97095000       1.23001000      13.88810000       0.01056800       0.03658800      -0.00727400
C        2.84055000       4.91997000      13.89515000       0.08774400       0.15197600      -0.00723100
C        2.84059000       0.00000000      13.89510000       0.08725400      -0.15375300      -0.00741700
C        0.71019000       3.68996000      13.91881000      -0.10208200       0.17487200      -0.01391600