49
Lattice="8.52159977 0.0 0.0 -4.260799885 7.379921881 0.0 0.0 0.0 24.0" Properties=species:S:1:pos:R:3:forces:R:3 stress="-0.006314285122291057 3.201894181578111e-06 -0.0 3.201894181578111e-06 -0.006310602631906785 -0.0 -0.0 -0.0 0.0022877939625468788" free_energy=-447.89437899 energy=-447.89032313 pbc="T T T"
C        0.00000000       0.00000000      13.80000000      -0.08938100      -0.15481400      -0.02595100
C       -2.13040000       3.68996000      13.80000000      -0.01230900      -0.04426000       0.01299100
C        4.26080000       0.00000000      13.80000000      -0.03217500      -0.03278500       0.01299100
C        2.13040000       3.68996000      13.80000000       0.11728600       0.20312900       0.10642100
C        0.00000000       2.46002000      13.80000000      -0.22992600      -0.00054700       0.10640200
C       -2.13040000       6.14998000      13.80000000       0.04908900       0.01094400       0.01301100
C        4.26080000       2.46002000      13.80000000       0.18334100      -0.00051400      -0.02593200
C        2.13040000       6.14998000      13.80000000       0.04908100      -0.01201300       0.01301000
C        2.13044000       1.23001000      13.80000000       0.11448800      -0.19937700       0.10637500
C        0.00004000       4.91997000      13.80000000      -0.09212300       0.15853400      -0.02593000
C        6.39124000       1.23001000      13.80000000      -0.01506600       0.04798500       0.01301100
C        4.26084000       4.91997000      13.80000000      -0.03494400       0.03649400       0.01301000
C        7.10130000       2.46002000      13.80000000      -0.18128400      -0.00101000      -0.02594000
C       -3.55069000       6.14998000      13.80000000      -0.04701800       0.01046900       0.01300300
C        2.84050000       2.46002000      13.80000000       0.23198600      -0.00099800       0.10641100
C        0.71010000       6.14998000      13.80000000      -0.04702100      -0.01248600       0.01300400
C        0.71015000       1.23001000      13.80000000      -0.11695600      -0.20259100       0.10639800
C       -1.42025000       4.91997000      13.80000000       0.03250400       0.03334100       0.01300200
C        4.97095000       1.23001000      13.80000000       0.01261900       0.04481600       0.01300200
C        2.84055000       4.91997000      13.80000000       0.08970500       0.15537300      -0.02593500
C        2.84059000       0.00000000      13.80000000       0.08976100      -0.15749000      -0.02594200
C        0.71019000       3.68996000      13.80000000      -0.11685900       0.20042500       0.10643700
C        7.10139000       0.00000000      13.80000000       0.03257600      -0.03549000       0.01300300
C        4.97099000       3.68996000      13.80000000       0.01269900      -0.04696400       0.01300400
C        0.00000000       0.00000000      10.20000000      -0.08938100      -0.15481400       0.02595100
C       -2.13040000       3.68996000      10.20000000      -0.01230900      -0.04426000      -0.01299100
C        4.26080000       0.00000000      10.20000000      -0.03217500      -0.03278500      -0.01299100
C        2.13040000       3.68996000      10.20000000       0.11728600       0.20312900      -0.10642100
C        0.00000000       2.46002000      10.20000000      -0.22992600      -0.00054700      -0.10640200
C       -2.13040000       6.14998000      10.20000000       0.04908900       0.01094400      -0.01301100
C        4.26080000       2.46002000      10.20000000       0.18334100      -0.00051400       0.02593200
C        2.13040000       6.14998000      10.20000000       0.04908100      -0.01201300      -0.01301000
C        2.13044000       1.23001000      10.20000000       0.11448800      -0.19937700      -0.10637500
C        0.00004000       4.91997000      10.20000000      -0.09212300       0.15853400       0.02593000
C        6.39124000       1.23001000      10.20000000      -0.01506600       0.04798500      -0.01301100
C        4.26084000       4.91997000      10.20000000      -0.03494400       0.03649400      -0.01301000
C        7.10130000       2.46002000      10.20000000      -0.18128400      -0.00101000       0.02594000
C       -3.55069000       6.14998000      10.20000000      -0.04701800       0.01046900      -0.01300300
C        2.84050000       2.46002000      10.20000000       0.23198600      -0.00099800      -0.10641100
C        0.71010000       6.14998000      10.20000000      -0.04702100      -0.01248600      -0.01300400
C        0.71015000       1.23001000      10.20000000      -0.11695600      -0.20259100      -0.10639800
C       -1.42025000       4.91997000      10.20000000       0.03250400       0.03334100      -0.01300200
C        4.97095000       1.23001000      10.20000000       0.01261900       0.04481600      -0.01300200
C        2.84055000       4.91997000      10.20000000       0.08970500       0.15537300       0.02593500
C        2.84059000       0.00000000      10.20000000       0.08976100      -0.15749000       0.02594200
C        0.71019000       3.68996000      10.20000000      -0.11685900       0.20042500      -0.10643700
C        7.10139000       0.00000000      10.20000000       0.03257600      -0.03549000      -0.01300300
C        4.97099000       3.68996000      10.20000000       0.01269900      -0.04696400      -0.01300400
Li       1.42025000       2.46002000      12.00000000      -0.00014500      -0.00033800       0.00000000
49
Lattice="8.52159977 0.0 0.0 -4.260799885 7.379921881 0.0 0.0 0.0 24.0" Properties=species:S:1:pos:R:3:forces:R:3 stress="-0.0063149279977310225 3.201894181578111e-06 -0.0 3.201894181578111e-06 -0.0063112330243285004 -0.0 -0.0 -0.0 0.0023459835521274885" free_energy=-447.90071536 energy=-447.89664598 pbc="T T T"
C        0.00000000       0.00000000      13.79875000      -0.08943200      -0.15490200       0.01457900
C       -2.13040000       3.68996000      13.80063000      -0.01217200      -0.04365000       0.00231300
C        4.26080000       0.00000000      13.80063000      -0.03171500      -0.03236200       0.00231200
C        2.13040000       3.68996000      13.80513000       0.11651200       0.20178800       0.09263400
C        0.00000000       2.46002000      13.80513000      -0.22838800      -0.00054200       0.09223300
C       -2.13040000       6.14998000      13.80063000       0.04849300       0.01075600       0.00226100
C        4.26080000       2.46002000      13.79875000       0.18343600      -0.00051500       0.01468500
C        2.13040000       6.14998000      13.80063000       0.04848300      -0.01182500       0.00227000
C        2.13044000       1.23001000      13.80513000       0.11372500      -0.19804400       0.09221600
C        0.00004000       4.91997000      13.79875000      -0.09217000       0.15861500       0.01469300
C        6.39124000       1.23001000      13.80063000      -0.01493000       0.04737500       0.00226000
C        4.26084000       4.91997000      13.80063000      -0.03448300       0.03607100       0.00226900
C        7.10130000       2.46002000      13.79875000      -0.18138400      -0.00101100       0.01465100
C       -3.55069000       6.14998000      13.80063000      -0.04642200       0.01028100       0.00227900
C        2.84050000       2.46002000      13.80513000       0.23044900      -0.00100600       0.09232400
C        0.71010000       6.14998000      13.80063000      -0.04642400      -0.01229800       0.00227300
C        0.71015000       1.23001000      13.80513000      -0.11618200      -0.20124900       0.09229100
C       -1.42025000       4.91997000      13.80063000       0.03204300       0.03291800       0.00227700
C        4.97095000       1.23001000      13.80063000       0.01248400       0.04420600       0.00227600
C        2.84055000       4.91997000      13.79875000       0.08975100       0.15545200       0.01468100
C        2.84059000       0.00000000      13.79875000       0.08981000      -0.15757600       0.01464300
C        0.71019000       3.68996000      13.80513000      -0.11609600       0.19908900       0.09234100
C        7.10139000       0.00000000      13.80063000       0.03211500      -0.03506600       0.00228000
C        4.97099000       3.68996000      13.80063000       0.01256300      -0.04635200       0.00227400
C        0.00000000       0.00000000      10.20125000      -0.08943200      -0.15490200      -0.01457900
C       -2.13040000       3.68996000      10.19937000      -0.01217200      -0.04365000      -0.00231300
C        4.26080000       0.00000000      10.19937000      -0.03171500      -0.03236200      -0.00231200
C        2.13040000       3.68996000      10.19487000       0.11651200       0.20178800      -0.09263400
C        0.00000000       2.46002000      10.19487000      -0.22838800      -0.00054200      -0.09223300
C       -2.13040000       6.14998000      10.19937000       0.04849300       0.01075600      -0.00226100
C        4.26080000       2.46002000      10.20125000       0.18343600      -0.00051500      -0.01468500
C        2.13040000       6.14998000      10.19937000       0.04848300      -0.01182500      -0.00227000
C        2.13044000       1.23001000      10.19487000       0.11372500      -0.19804400      -0.09221600
C        0.00004000       4.91997000      10.20125000      -0.09217000       0.15861500      -0.01469300
C        6.39124000       1.23001000      10.19937000      -0.01493000       0.04737500      -0.00226000
C        4.26084000       4.91997000      10.19937000      -0.03448300       0.03607100      -0.00226900
C        7.10130000       2.46002000      10.20125000      -0.18138400      -0.00101100      -0.01465100
C       -3.55069000       6.14998000      10.19937000      -0.04642200       0.01028100      -0.00227900
C        2.84050000       2.46002000      10.19487000       0.23044900      -0.00100600      -0.09232400
C        0.71010000       6.14998000      10.19937000      -0.04642400      -0.01229800      -0.00227300
C        0.71015000       1.23001000      10.19487000      -0.11618200      -0.20124900      -0.09229100
C       -1.42025000       4.91997000      10.19937000       0.03204300       0.03291800      -0.00227700
C        4.97095000       1.23001000      10.19937000       0.01248400       0.04420600      -0.00227600
C        2.84055000       4.91997000      10.20125000       0.08975100       0.15545200      -0.01468100
C        2.84059000       0.00000000      10.20125000       0.08981000      -0.15757600      -0.01464300
C        0.71019000       3.68996000      10.19487000      -0.11609600       0.19908900      -0.09234100
C        7.10139000       0.00000000      10.19937000       0.03211500      -0.03506600      -0.00228000
C        4.97099000       3.68996000      10.19937000       0.01256300      -0.04635200      -0.00227400
Li       1.42025000       2.46001000      12.00000000      -0.00013300      -0.00030800      -0.00000000
49
Lattice="8.52159977 0.0 0.0 -4.260799885 7.379921881 0.0 0.0 0.0 24.0" Properties=species:S:1:pos:R:3:forces:R:3 stress="-0.006192563211318082 3.226860218081644e-06 -0.0 3.226860218081644e-06 -0.006188837030369929 -0.0 -0.0 -0.0 0.0025229802679192855" free_energy=-447.90688039 energy=-447.90279699 pbc="T T T"
C        0.00000000       0.00000000      13.79971000      -0.08924700      -0.15458200       0.03094200
C       -2.13040000       3.68996000      13.80078000      -0.01196500      -0.04299100       0.00096500
C        4.26080000       0.00000000      13.80078000      -0.03124800      -0.03185400       0.00096000
C        2.13040000       3.68996000      13.81122000       0.11574500       0.20046000       0.06642500
C        0.00000000       2.46002000      13.81120000      -0.22687400      -0.00053400       0.06592300
C       -2.13040000       6.14998000      13.80078000       0.04782100       0.01060200       0.00093700
C        4.26080000       2.46002000      13.79971000       0.18305800      -0.00051300       0.03084800
C        2.13040000       6.14998000      13.80078000       0.04780600      -0.01167100       0.00094600
C        2.13044000       1.23001000      13.81119000       0.11297400      -0.19673000       0.06591200
C        0.00004000       4.91997000      13.79971000      -0.09197900       0.15828700       0.03085600
C        6.39124000       1.23001000      13.80078000      -0.01472800       0.04671600       0.00094000
C        4.26084000       4.91997000      13.80078000      -0.03401100       0.03556200       0.00094500
C        7.10130000       2.46002000      13.79971000      -0.18101300      -0.00100900       0.03084100
C       -3.55069000       6.14998000      13.80078000      -0.04575000       0.01012800       0.00089600
C        2.84050000       2.46002000      13.81120000       0.22894900      -0.00104100       0.06611400
C        0.71010000       6.14998000      13.80078000      -0.04574900      -0.01214800       0.00098700
C        0.71015000       1.23001000      13.81120000      -0.11539700      -0.19988800       0.06591800
C       -1.42025000       4.91997000      13.80078000       0.03157300       0.03241100       0.00096400
C        4.97095000       1.23001000      13.80078000       0.01228000       0.04354600       0.00095900
C        2.84055000       4.91997000      13.79971000       0.08955500       0.15511200       0.03101500
C        2.84059000       0.00000000      13.79971000       0.08962700      -0.15725600       0.03083300
C        0.71019000       3.68996000      13.81121000      -0.11537600       0.19777100       0.06612400
C        7.10139000       0.00000000      13.80078000       0.03164600      -0.03456000       0.00089800
C        4.97099000       3.68996000      13.80078000       0.01235500      -0.04569300       0.00098400
C        0.00000000       0.00000000      10.20029000      -0.08924700      -0.15458200      -0.03094200
C       -2.13040000       3.68996000      10.19922000      -0.01196500      -0.04299100      -0.00096500
C        4.26080000       0.00000000      10.19922000      -0.03124800      -0.03185400      -0.00096000
C        2.13040000       3.68996000      10.18878000       0.11574500       0.20046000      -0.06642500
C        0.00000000       2.46002000      10.18880000      -0.22687400      -0.00053400      -0.06592300
C       -2.13040000       6.14998000      10.19922000       0.04782100       0.01060200      -0.00093700
C        4.26080000       2.46002000      10.20029000       0.18305800      -0.00051300      -0.03084800
C        2.13040000       6.14998000      10.19922000       0.04780600      -0.01167100      -0.00094600
C        2.13044000       1.23001000      10.18881000       0.11297400      -0.19673000      -0.06591200
C        0.00004000       4.91997000      10.20029000      -0.09197900       0.15828700      -0.03085600
C        6.39124000       1.23001000      10.19922000      -0.01472800       0.04671600      -0.00094000
C        4.26084000       4.91997000      10.19922000      -0.03401100       0.03556200      -0.00094500
C        7.10130000       2.46002000      10.20029000      -0.18101300      -0.00100900      -0.03084100
C       -3.55069000       6.14998000      10.19922000      -0.04575000       0.01012800      -0.00089600
C        2.84050000       2.46002000      10.18880000       0.22894900      -0.00104100      -0.06611400
C        0.71010000       6.14998000      10.19922000      -0.04574900      -0.01214800      -0.00098700
C        0.71015000       1.23001000      10.18880000      -0.11539700      -0.19988800      -0.06591800
C       -1.42025000       4.91997000      10.19922000       0.03157300       0.03241100      -0.00096400
C        4.97095000       1.23001000      10.19922000       0.01228000       0.04354600      -0.00095900
C        2.84055000       4.91997000      10.20029000       0.08955500       0.15511200      -0.03101500
C        2.84059000       0.00000000      10.20029000       0.08962700      -0.15725600      -0.03083300
C        0.71019000       3.68996000      10.18879000      -0.11537600       0.19777100      -0.06612400
C        7.10139000       0.00000000      10.19922000       0.03164600      -0.03456000      -0.00089800
C        4.97099000       3.68996000      10.19922000       0.01235500      -0.04569300      -0.00098400
Li       1.42024000       2.45999000      12.00000000      -0.00010700      -0.00025200      -0.00000000
49
Lattice="8.52159977 0.0 0.0 -4.260799885 7.379921881 0.0 0.0 0.0 24.0" Properties=species:S:1:pos:R:3:forces:R:3 stress="-0.006183612887231565 3.2580677637110607e-06 -0.0 3.2580677637110607e-06 -0.006179849257228658 -0.0 -0.0 -0.0 0.0026506815446348574" free_energy=-447.91787152 energy=-447.9137736 pbc="T T T"
C        0.00000000       0.00000000      13.80571000      -0.08900900      -0.15417000       0.01275100
C       -2.13040000       3.68996000      13.80091000      -0.01120800      -0.04213900       0.01703200
C        4.26080000       0.00000000      13.80091000      -0.03088900      -0.03077300       0.01702700
C        2.13040000       3.68996000      13.82224000       0.11467900       0.19861800       0.07690700
C        0.00000000       2.46002000      13.82212000      -0.22477700      -0.00052500       0.07661900
C       -2.13040000       6.14998000      13.80090000       0.04671200       0.01082400       0.01689200
C        4.26080000       2.46002000      13.80570000       0.18254000      -0.00050700       0.01279400
C        2.13040000       6.14998000      13.80090000       0.04668200      -0.01189800       0.01711300
C        2.13044000       1.23001000      13.82212000       0.11193400      -0.19491400       0.07661500
C        0.00004000       4.91997000      13.80570000      -0.09171300       0.15783900       0.01280400
C        6.39124000       1.23001000      13.80090000      -0.01398200       0.04586600       0.01689300
C        4.26084000       4.91997000      13.80090000      -0.03364500       0.03447600       0.01710800
C        7.10130000       2.46002000      13.80569000      -0.18051300      -0.00101800       0.01264600
C       -3.55069000       6.14998000      13.80089000      -0.04464200       0.01035900       0.01712500
C        2.84050000       2.46002000      13.82217000       0.22694300      -0.00121200       0.07674900
C        0.71010000       6.14998000      13.80091000      -0.04462800      -0.01237500       0.01695300
C        0.71015000       1.23001000      13.82212000      -0.11423600      -0.19787600       0.07673100
C       -1.42025000       4.91997000      13.80091000       0.03120500       0.03133400       0.01690400
C        4.97095000       1.23001000      13.80091000       0.01153200       0.04268900       0.01690000
C        2.84055000       4.91997000      13.80573000       0.08929100       0.15465700       0.01298200
C        2.84059000       0.00000000      13.80569000       0.08937000      -0.15682900       0.01263600
C        0.71019000       3.68996000      13.82217000      -0.11452100       0.19594400       0.07675200
C        7.10139000       0.00000000      13.80089000       0.03129200      -0.03348400       0.01712900
C        4.97099000       3.68996000      13.80091000       0.01159700      -0.04483600       0.01695300
C        0.00000000       0.00000000      10.19429000      -0.08900900      -0.15417000      -0.01275100
C       -2.13040000       3.68996000      10.19909000      -0.01120800      -0.04213900      -0.01703200
C        4.26080000       0.00000000      10.19909000      -0.03088900      -0.03077300      -0.01702700
C        2.13040000       3.68996000      10.17776000       0.11467900       0.19861800      -0.07690700
C        0.00000000       2.46002000      10.17788000      -0.22477700      -0.00052500      -0.07661900
C       -2.13040000       6.14998000      10.19910000       0.04671200       0.01082400      -0.01689200
C        4.26080000       2.46002000      10.19430000       0.18254000      -0.00050700      -0.01279400
C        2.13040000       6.14998000      10.19910000       0.04668200      -0.01189800      -0.01711300
C        2.13044000       1.23001000      10.17788000       0.11193400      -0.19491400      -0.07661500
C        0.00004000       4.91997000      10.19430000      -0.09171300       0.15783900      -0.01280400
C        6.39124000       1.23001000      10.19910000      -0.01398200       0.04586600      -0.01689300
C        4.26084000       4.91997000      10.19910000      -0.03364500       0.03447600      -0.01710800
C        7.10130000       2.46002000      10.19431000      -0.18051300      -0.00101800      -0.01264600
C       -3.55069000       6.14998000      10.19911000      -0.04464200       0.01035900      -0.01712500
C        2.84050000       2.46002000      10.17783000       0.22694300      -0.00121200      -0.07674900
C        0.71010000       6.14998000      10.19909000      -0.04462800      -0.01237500      -0.01695300
C        0.71015000       1.23001000      10.17788000      -0.11423600      -0.19787600      -0.07673100
C       -1.42025000       4.91997000      10.19909000       0.03120500       0.03133400      -0.01690400
C        4.97095000       1.23001000      10.19909000       0.01153200       0.04268900      -0.01690000
C        2.84055000       4.91997000      10.19427000       0.08929100       0.15465700      -0.01298200
C        2.84059000       0.00000000      10.19431000       0.08937000      -0.15682900      -0.01263600
C        0.71019000       3.68996000      10.17783000      -0.11452100       0.19594400      -0.07675200
C        7.10139000       0.00000000      10.19911000       0.03129200      -0.03348400      -0.01712900
C        4.97099000       3.68996000      10.19909000       0.01159700      -0.04483600      -0.01695300
Li       1.42022000       2.45994000      12.00000000      -0.00003000      -0.00009800       0.00000000
49
Lattice="8.52159977 0.0 0.0 -4.260799885 7.379921881 0.0 0.0 0.0 24.0" Properties=species:S:1:pos:R:3:forces:R:3 stress="-0.006315059069422666 3.183169654200462e-06 -0.0 3.183169654200462e-06 -0.006311382820547521 -0.0 -0.0 -0.0 0.002277046083832108" free_energy=-447.89289008 energy=-447.88885458 pbc="T T T"
C        0.00000000       0.00000000      13.79639000      -0.08930400      -0.15468100       0.00056000
C       -2.13040000       3.68996000      13.79927000      -0.01229600      -0.04444100       0.00043100
C        4.26080000       0.00000000      13.79927000      -0.03233700      -0.03286600       0.00043100
C        2.13040000       3.68996000      13.79838000       0.11749500       0.20349000       0.09521100
C        0.00000000       2.46002000      13.79842000      -0.23032700      -0.00054000       0.09518100
C       -2.13040000       6.14998000      13.79928000       0.04923800       0.01104700       0.00034000
C        4.26080000       2.46002000      13.79640000       0.18318800      -0.00051600       0.00090300
C        2.13040000       6.14998000      13.79926000       0.04923400      -0.01212000       0.00029200
C        2.13044000       1.23001000      13.79842000       0.11469500      -0.19972000       0.09516600
C        0.00004000       4.91997000      13.79640000      -0.09204800       0.15840100       0.00091600
C        6.39124000       1.23001000      13.79928000      -0.01505000       0.04816700       0.00033700
C        4.26084000       4.91997000      13.79926000      -0.03511400       0.03657300       0.00028800
C        7.10130000       2.46002000      13.79641000      -0.18112500      -0.00101900       0.00076800
C       -3.55069000       6.14998000      13.79926000      -0.04716900       0.01056900       0.00040300
C        2.84050000       2.46002000      13.79840000       0.23239200      -0.00100200       0.09522700
C        0.71010000       6.14998000      13.79927000      -0.04717200      -0.01259000       0.00025100
C        0.71015000       1.23001000      13.79841000      -0.11715900      -0.20294400       0.09524100
C       -1.42025000       4.91997000      13.79928000       0.03267300       0.03342000       0.00029900
C        4.97095000       1.23001000      13.79928000       0.01260300       0.04500200       0.00029800
C        2.84055000       4.91997000      13.79637000       0.08963500       0.15524900       0.00084300
C        2.84059000       0.00000000      13.79641000       0.08967400      -0.15735500       0.00075500
C        0.71019000       3.68996000      13.79840000      -0.11706400       0.20077500       0.09524300
C        7.10139000       0.00000000      13.79926000       0.03273800      -0.03556900       0.00040600
C        4.97099000       3.68996000      13.79927000       0.01268400      -0.04714600       0.00025300
C        0.00000000       0.00000000      10.20361000      -0.08930400      -0.15468100      -0.00056000
C       -2.13040000       3.68996000      10.20073000      -0.01229600      -0.04444100      -0.00043100
C        4.26080000       0.00000000      10.20073000      -0.03233700      -0.03286600      -0.00043100
C        2.13040000       3.68996000      10.20162000       0.11749500       0.20349000      -0.09521100
C        0.00000000       2.46002000      10.20158000      -0.23032700      -0.00054000      -0.09518100
C       -2.13040000       6.14998000      10.20072000       0.04923800       0.01104700      -0.00034000
C        4.26080000       2.46002000      10.20360000       0.18318800      -0.00051600      -0.00090300
C        2.13040000       6.14998000      10.20074000       0.04923400      -0.01212000      -0.00029200
C        2.13044000       1.23001000      10.20158000       0.11469500      -0.19972000      -0.09516600
C        0.00004000       4.91997000      10.20360000      -0.09204800       0.15840100      -0.00091600
C        6.39124000       1.23001000      10.20072000      -0.01505000       0.04816700      -0.00033700
C        4.26084000       4.91997000      10.20074000      -0.03511400       0.03657300      -0.00028800
C        7.10130000       2.46002000      10.20359000      -0.18112500      -0.00101900      -0.00076800
C       -3.55069000       6.14998000      10.20074000      -0.04716900       0.01056900      -0.00040300
C        2.84050000       2.46002000      10.20160000       0.23239200      -0.00100200      -0.09522700
C        0.71010000       6.14998000      10.20073000      -0.04717200      -0.01259000      -0.00025100
C        0.71015000       1.23001000      10.20159000      -0.11715900      -0.20294400      -0.09524100
C       -1.42025000       4.91997000      10.20072000       0.03267300       0.03342000      -0.00029900
C        4.97095000       1.23001000      10.20072000       0.01260300       0.04500200      -0.00029800
C        2.84055000       4.91997000      10.20363000       0.08963500       0.15524900      -0.00084300
C        2.84059000       0.00000000      10.20359000       0.08967400      -0.15735500      -0.00075500
C        0.71019000       3.68996000      10.20160000      -0.11706400       0.20077500      -0.09524300
C        7.10139000       0.00000000      10.20074000       0.03273800      -0.03556900      -0.00040600
C        4.97099000       3.68996000      10.20073000       0.01268400      -0.04714600      -0.00025300
Li       1.42025000       2.46002000      12.00000000      -0.00016500      -0.00037200       0.00000000
49
Lattice="8.52159977 0.0 0.0 -4.260799885 7.379921881 0.0 0.0 0.0 24.0" Properties=species:S:1:pos:R:3:forces:R:3 stress="-0.006198935792135608 3.2830338002145936e-06 -0.0 3.2830338002145936e-06 -0.006195147196096197 -0.0 -0.0 -0.0 0.002557670575640945" free_energy=-447.92524078 energy=-447.92114886 pbc="T T T"
C        0.00000000       0.00000000      13.80786000      -0.08825300      -0.15285900       0.03512900
C       -2.13040000       3.68996000      13.80257000      -0.01090300      -0.04150600       0.01631500
C        4.26080000       0.00000000      13.80257000      -0.03049400      -0.03019300       0.01631000
C        2.13040000       3.68996000      13.82999000       0.11453300       0.19836600       0.04692100
C        0.00000000       2.46002000      13.82982000      -0.22447900      -0.00054300       0.04688800
C       -2.13040000       6.14998000      13.80255000       0.04601800       0.01077400       0.01620000
C        4.26080000       2.46002000      13.80784000       0.18101200      -0.00050000       0.03491600
C        2.13040000       6.14998000      13.80258000       0.04598300      -0.01184400       0.01638500
C        2.13044000       1.23001000      13.82982000       0.11177000      -0.19466500       0.04688600
C        0.00004000       4.91997000      13.80784000      -0.09094300       0.15651900       0.03492300
C        6.39124000       1.23001000      13.80255000      -0.01367900       0.04524000       0.01620300
C        4.26084000       4.91997000      13.80258000      -0.03324800       0.03389800       0.01638200
C        7.10130000       2.46002000      13.80783000      -0.17898400      -0.00102900       0.03483400
C       -3.55069000       6.14998000      13.80256000      -0.04394400       0.01030600       0.01634400
C        2.84050000       2.46002000      13.82988000       0.22678900      -0.00144800       0.04696500
C        0.71010000       6.14998000      13.80257000      -0.04392900      -0.01232400       0.01632600
C        0.71015000       1.23001000      13.82983000      -0.11396000      -0.19739600       0.04681200
C       -1.42025000       4.91997000      13.80256000       0.03081100       0.03075800       0.01621200
C        4.97095000       1.23001000      13.80256000       0.01123000       0.04206100       0.01620700
C        2.84055000       4.91997000      13.80790000       0.08852900       0.15333700       0.03530400
C        2.84059000       0.00000000      13.80783000       0.08859700      -0.15551200       0.03482700
C        0.71019000       3.68996000      13.82988000      -0.11464700       0.19569100       0.04696700