49
Lattice="8.52159977 0.0 0.0 -4.260799885 7.379921881 0.0 0.0 0.0 24.0" Properties=species:S:1:pos:R:3:forces:R:3 stress="-0.0062424266277247625 3.251826254585178e-06 -0.0 3.251826254585178e-06 -0.006238669239230981 -0.0 -0.0 -0.0 0.003396229809721613" free_energy=-447.95427374 energy=-447.95067909 pbc="T T T"
C        0.00000000       0.00000000      13.85000000      -0.08926300      -0.15460800      -0.03659400
C       -2.13040000       3.68996000      13.85000000      -0.01087600      -0.04019000       0.00072600
C        4.26080000       0.00000000      13.85000000      -0.02936800      -0.02951000       0.00072500
C        2.13040000       3.68996000      13.85000000       0.10877900       0.18839900       0.06243800
C        0.00000000       2.46002000      13.85000000      -0.21292700      -0.00053400       0.06131600
C       -2.13040000       6.14998000      13.85000000       0.04484800       0.01015400      -0.00049200
C        4.26080000       2.46002000      13.85000000       0.18311100      -0.00052000      -0.03781100
C        2.13040000       6.14998000      13.85000000       0.04484400      -0.01121700      -0.00049200
C        2.13044000       1.23001000      13.85000000       0.10600000      -0.18465400       0.06129600
C        0.00004000       4.91997000      13.85000000      -0.09201200       0.15833000      -0.03781100
C        6.39124000       1.23001000      13.85000000      -0.01362900       0.04391600      -0.00049200
C        4.26084000       4.91997000      13.85000000      -0.03213600       0.03322300      -0.00049200
C        7.10130000       2.46002000      13.85000000      -0.18050300      -0.00198000      -0.03763000
C       -3.55069000       6.14998000      13.85000000      -0.04222900       0.00871300      -0.00031100
C        2.84050000       2.46002000      13.85000000       0.21554600      -0.00197100       0.06144800
C        0.71010000       6.14998000      13.85000000      -0.04223100      -0.01265600      -0.00031200
C        0.71015000       1.23001000      13.85000000      -0.10789300      -0.18689100       0.06143500
C       -1.42025000       4.91997000      13.85000000       0.03024800       0.03102000      -0.00031200
C        4.97095000       1.23001000      13.85000000       0.01173700       0.04170300      -0.00031200
C        2.84055000       4.91997000      13.85000000       0.09013400       0.15611700      -0.03762700
C        2.84059000       0.00000000      13.85000000       0.08853100      -0.15730000      -0.03763000
C        0.71019000       3.68996000      13.85000000      -0.10947900       0.18569600       0.06146800
C        7.10139000       0.00000000      13.85000000       0.02866000      -0.03221900      -0.00031100
C        4.97099000       3.68996000      13.85000000       0.01015600      -0.04290200      -0.00031200
C        0.00000000       0.00000000      10.15000000      -0.08926300      -0.15460800       0.03659400
C       -2.13040000       3.68996000      10.15000000      -0.01087600      -0.04019000      -0.00072600
C        4.26080000       0.00000000      10.15000000      -0.02936800      -0.02951000      -0.00072500
C        2.13040000       3.68996000      10.15000000       0.10877900       0.18839900      -0.06243800
C        0.00000000       2.46002000      10.15000000      -0.21292700      -0.00053400      -0.06131600
C       -2.13040000       6.14998000      10.15000000       0.04484800       0.01015400       0.00049200
C        4.26080000       2.46002000      10.15000000       0.18311100      -0.00052000       0.03781100
C        2.13040000       6.14998000      10.15000000       0.04484400      -0.01121700       0.00049200
C        2.13044000       1.23001000      10.15000000       0.10600000      -0.18465400      -0.06129600
C        0.00004000       4.91997000      10.15000000      -0.09201200       0.15833000       0.03781100
C        6.39124000       1.23001000      10.15000000      -0.01362900       0.04391600       0.00049200
C        4.26084000       4.91997000      10.15000000      -0.03213600       0.03322300       0.00049200
C        7.10130000       2.46002000      10.15000000      -0.18050300      -0.00198000       0.03763000
C       -3.55069000       6.14998000      10.15000000      -0.04222900       0.00871300       0.00031100
C        2.84050000       2.46002000      10.15000000       0.21554600      -0.00197100      -0.06144800
C        0.71010000       6.14998000      10.15000000      -0.04223100      -0.01265600       0.00031200
C        0.71015000       1.23001000      10.15000000      -0.10789300      -0.18689100      -0.06143500
C       -1.42025000       4.91997000      10.15000000       0.03024800       0.03102000       0.00031200
C        4.97095000       1.23001000      10.15000000       0.01173700       0.04170300       0.00031200
C        2.84055000       4.91997000      10.15000000       0.09013400       0.15611700       0.03762700
C        2.84059000       0.00000000      10.15000000       0.08853100      -0.15730000       0.03763000
C        0.71019000       3.68996000      10.15000000      -0.10947900       0.18569600      -0.06146800
C        7.10139000       0.00000000      10.15000000       0.02866000      -0.03221900       0.00031100
C        4.97099000       3.68996000      10.15000000       0.01015600      -0.04290200       0.00031200
Li       1.42025000       2.46002000      12.00000000      -0.00009700      -0.00023500       0.00000000
49
Lattice="8.52159977 0.0 0.0 -4.260799885 7.379921881 0.0 0.0 0.0 24.0" Properties=species:S:1:pos:R:3:forces:R:3 stress="-0.006155819447094007 3.264309272836944e-06 -0.0 3.264309272836944e-06 -0.006152049575581973 -0.0 -0.0 -0.0 0.0034458560487815107" free_energy=-447.95668938 energy=-447.95311336 pbc="T T T"
C        0.00000000       0.00000000      13.84823000      -0.08926900      -0.15461900       0.00219500
C       -2.13040000       3.68996000      13.85004000      -0.01089000      -0.03986200      -0.00998100
C        4.26080000       0.00000000      13.85003000      -0.02907600      -0.02935800      -0.00998200
C        2.13040000       3.68996000      13.85301000       0.10842000       0.18777400       0.04952300
C        0.00000000       2.46002000      13.85296000      -0.21222200      -0.00053600       0.04908100
C       -2.13040000       6.14998000      13.84998000       0.04456900       0.00997100      -0.01059600
C        4.26080000       2.46002000      13.84818000       0.18312200      -0.00052000       0.00154600
C        2.13040000       6.14998000      13.84998000       0.04456000      -0.01103200      -0.01058200
C        2.13044000       1.23001000      13.85296000       0.10564700      -0.18404400       0.04906600
C        0.00004000       4.91997000      13.84818000      -0.09201700       0.15833900       0.00155300
C        6.39124000       1.23001000      13.84998000      -0.01364900       0.04358400      -0.01059700
C        4.26084000       4.91997000      13.84998000      -0.03183400       0.03307000      -0.01058300
C        7.10130000       2.46002000      13.84818000      -0.18053900      -0.00193900       0.00184500
C       -3.55069000       6.14998000      13.84999000      -0.04195000       0.00852900      -0.01027000
C        2.84050000       2.46002000      13.85296000       0.21486200      -0.00201500       0.04936800
C        0.71010000       6.14998000      13.84998000      -0.04195200      -0.01247500      -0.01027600
C        0.71015000       1.23001000      13.85296000      -0.10750800      -0.18622500       0.04942400
C       -1.42025000       4.91997000      13.84998000       0.02995200       0.03086900      -0.01027100
C        4.97095000       1.23001000      13.84998000       0.01175600       0.04137200      -0.01027300
C        2.84055000       4.91997000      13.84818000       0.09010900       0.15607200       0.00183200
C        2.84059000       0.00000000      13.84818000       0.08858500      -0.15730800       0.00183900
C        0.71019000       3.68996000      13.85297000      -0.10917500       0.18508300       0.04938100
C        7.10139000       0.00000000      13.84999000       0.02836000      -0.03206900      -0.01026900
C        4.97099000       3.68996000      13.84998000       0.01017300      -0.04256800      -0.01027700
C        0.00000000       0.00000000      10.15177000      -0.08926900      -0.15461900      -0.00219500
C       -2.13040000       3.68996000      10.14996000      -0.01089000      -0.03986200       0.00998100
C        4.26080000       0.00000000      10.14997000      -0.02907600      -0.02935800       0.00998200
C        2.13040000       3.68996000      10.14699000       0.10842000       0.18777400      -0.04952300
C        0.00000000       2.46002000      10.14704000      -0.21222200      -0.00053600      -0.04908100
C       -2.13040000       6.14998000      10.15002000       0.04456900       0.00997100       0.01059600
C        4.26080000       2.46002000      10.15182000       0.18312200      -0.00052000      -0.00154600
C        2.13040000       6.14998000      10.15002000       0.04456000      -0.01103200       0.01058200
C        2.13044000       1.23001000      10.14704000       0.10564700      -0.18404400      -0.04906600
C        0.00004000       4.91997000      10.15182000      -0.09201700       0.15833900      -0.00155300
C        6.39124000       1.23001000      10.15002000      -0.01364900       0.04358400       0.01059700
C        4.26084000       4.91997000      10.15002000      -0.03183400       0.03307000       0.01058300
C        7.10130000       2.46002000      10.15182000      -0.18053900      -0.00193900      -0.00184500
C       -3.55069000       6.14998000      10.15001000      -0.04195000       0.00852900       0.01027000
C        2.84050000       2.46002000      10.14704000       0.21486200      -0.00201500      -0.04936800
C        0.71010000       6.14998000      10.15002000      -0.04195200      -0.01247500       0.01027600
C        0.71015000       1.23001000      10.14704000      -0.10750800      -0.18622500      -0.04942400
C       -1.42025000       4.91997000      10.15002000       0.02995200       0.03086900       0.01027100
C        4.97095000       1.23001000      10.15002000       0.01175600       0.04137200       0.01027300
C        2.84055000       4.91997000      10.15182000       0.09010900       0.15607200      -0.00183200
C        2.84059000       0.00000000      10.15182000       0.08858500      -0.15730800      -0.00183900
C        0.71019000       3.68996000      10.14703000      -0.10917500       0.18508300      -0.04938100
C        7.10139000       0.00000000      10.15001000       0.02836000      -0.03206900       0.01026900
C        4.97099000       3.68996000      10.15002000       0.01017300      -0.04256800       0.01027700
Li       1.42025000       2.46001000      12.00000000      -0.00007200      -0.00018800       0.00000000
49
Lattice="8.52159977 0.0 0.0 -4.260799885 7.379921881 0.0 0.0 0.0 24.0" Properties=species:S:1:pos:R:3:forces:R:3 stress="-0.006066509693011744 3.2705507819628276e-06 -0.0 3.2705507819628276e-06 -0.00606273982149971 -0.0 -0.0 -0.0 0.0036112622821265422" free_energy=-447.9579967 energy=-447.95443991 pbc="T T T"
C        0.00000000       0.00000000      13.84836000      -0.08919200      -0.15448600       0.00768300
C       -2.13040000       3.68996000      13.84947000      -0.01088100      -0.03956800      -0.01108500
C        4.26080000       0.00000000      13.84947000      -0.02882600      -0.02920400      -0.01108800
C        2.13040000       3.68996000      13.85581000       0.10810300       0.18722500       0.02451600
C        0.00000000       2.46002000      13.85573000      -0.21158600      -0.00053400       0.02463200
C       -2.13040000       6.14998000      13.84938000       0.04430900       0.00983000      -0.01137200
C        4.26080000       2.46002000      13.84826000       0.18295900      -0.00052100       0.00737300
C        2.13040000       6.14998000      13.84938000       0.04429700      -0.01089200      -0.01137000
C        2.13044000       1.23001000      13.85573000       0.10533200      -0.18349200       0.02462300
C        0.00004000       4.91997000      13.84826000      -0.09193600       0.15819800       0.00737900
C        6.39124000       1.23001000      13.84938000      -0.01364100       0.04328800      -0.01137000
C        4.26084000       4.91997000      13.84938000      -0.03158200       0.03291300      -0.01137100
C        7.10130000       2.46002000      13.84829000      -0.18038600      -0.00194200       0.00738900
C       -3.55069000       6.14998000      13.84941000      -0.04169600       0.00840000      -0.01135100
C        2.84050000       2.46002000      13.85575000       0.21424700      -0.00204600       0.02453100
C        0.71010000       6.14998000      13.84940000      -0.04169600      -0.01232400      -0.01136200
C        0.71015000       1.23001000      13.85575000      -0.10716600      -0.18563200       0.02463800
C       -1.42025000       4.91997000      13.84940000       0.02969300       0.03070100      -0.01136000
C        4.97095000       1.23001000      13.84940000       0.01173900       0.04106300      -0.01136300
C        2.84055000       4.91997000      13.84829000       0.09002900       0.15593300       0.00733900
C        2.84059000       0.00000000      13.84829000       0.08850600      -0.15717900       0.00738200
C        0.71019000       3.68996000      13.85575000      -0.10889400       0.18453400       0.02454200
C        7.10139000       0.00000000      13.84941000       0.02812200      -0.03191300      -0.01134900
C        4.97099000       3.68996000      13.84940000       0.01017600      -0.04227100      -0.01136400
C        0.00000000       0.00000000      10.15164000      -0.08919200      -0.15448600      -0.00768300
C       -2.13040000       3.68996000      10.15053000      -0.01088100      -0.03956800       0.01108500
C        4.26080000       0.00000000      10.15053000      -0.02882600      -0.02920400       0.01108800
C        2.13040000       3.68996000      10.14419000       0.10810300       0.18722500      -0.02451600
C        0.00000000       2.46002000      10.14427000      -0.21158600      -0.00053400      -0.02463200
C       -2.13040000       6.14998000      10.15062000       0.04430900       0.00983000       0.01137200
C        4.26080000       2.46002000      10.15174000       0.18295900      -0.00052100      -0.00737300
C        2.13040000       6.14998000      10.15062000       0.04429700      -0.01089200       0.01137000
C        2.13044000       1.23001000      10.14427000       0.10533200      -0.18349200      -0.02462300
C        0.00004000       4.91997000      10.15174000      -0.09193600       0.15819800      -0.00737900
C        6.39124000       1.23001000      10.15062000      -0.01364100       0.04328800       0.01137000
C        4.26084000       4.91997000      10.15062000      -0.03158200       0.03291300       0.01137100
C        7.10130000       2.46002000      10.15171000      -0.18038600      -0.00194200      -0.00738900
C       -3.55069000       6.14998000      10.15059000      -0.04169600       0.00840000       0.01135100
C        2.84050000       2.46002000      10.14425000       0.21424700      -0.00204600      -0.02453100
C        0.71010000       6.14998000      10.15060000      -0.04169600      -0.01232400       0.01136200
C        0.71015000       1.23001000      10.14425000      -0.10716600      -0.18563200      -0.02463800
C       -1.42025000       4.91997000      10.15060000       0.02969300       0.03070100       0.01136000
C        4.97095000       1.23001000      10.15060000       0.01173900       0.04106300       0.01136300
C        2.84055000       4.91997000      10.15171000       0.09002900       0.15593300      -0.00733900
C        2.84059000       0.00000000      10.15171000       0.08850600      -0.15717900      -0.00738200
C        0.71019000       3.68996000      10.14425000      -0.10889400       0.18453400      -0.02454200
C        7.10139000       0.00000000      10.15059000       0.02812200      -0.03191300       0.01134900
C        4.97099000       3.68996000      10.15060000       0.01017600      -0.04227100       0.01136400
Li       1.42024000       2.46000000      12.00000000      -0.00006000      -0.00016200       0.00000000
49
Lattice="8.52159977 0.0 0.0 -4.260799885 7.379921881 0.0 0.0 0.0 24.0" Properties=species:S:1:pos:R:3:forces:R:3 stress="-0.005977374701185005 3.2580677637110607e-06 -0.0 3.2580677637110607e-06 -0.005973611071182097 -0.0 -0.0 -0.0 0.003647007404890476" free_energy=-447.95883417 energy=-447.95528792 pbc="T T T"
C        0.00000000       0.00000000      13.84916000      -0.08916100      -0.15443200      -0.00901300
C       -2.13040000       3.68996000      13.84840000      -0.01082500      -0.03936900      -0.00080800
C        4.26080000       0.00000000      13.84840000      -0.02868100      -0.02905600      -0.00081300
C        2.13040000       3.68996000      13.85784000       0.10791300       0.18689600       0.02657800
C        0.00000000       2.46002000      13.85778000      -0.21119900      -0.00052800       0.02690700
C       -2.13040000       6.14998000      13.84828000       0.04410700       0.00978400      -0.00085900
C        4.26080000       2.46002000      13.84904000       0.18288500      -0.00052400      -0.00912400
C        2.13040000       6.14998000      13.84828000       0.04409700      -0.01084700      -0.00088000
C        2.13044000       1.23001000      13.85778000       0.10514400      -0.18315600       0.02690000
C        0.00004000       4.91997000      13.84904000      -0.09190200       0.15813100      -0.00911600
C        6.39124000       1.23001000      13.84828000      -0.01357900       0.04309000      -0.00085700
C        4.26084000       4.91997000      13.84828000      -0.03144200       0.03276300      -0.00088300
C        7.10130000       2.46002000      13.84906000      -0.18030100      -0.00196600      -0.00877700
C       -3.55069000       6.14998000      13.84831000      -0.04151100       0.00838000      -0.00060700
C        2.84050000       2.46002000      13.85779000       0.21387100      -0.00205700       0.02692100
C        0.71010000       6.14998000      13.84831000      -0.04151000      -0.01224900      -0.00063900
C        0.71015000       1.23001000      13.85780000      -0.10696300      -0.18528000       0.02712200
C       -1.42025000       4.91997000      13.84831000       0.02953900       0.03052600      -0.00060900
C        4.97095000       1.23001000      13.84831000       0.01166500       0.04084300      -0.00061300
C        2.84055000       4.91997000      13.84906000       0.09000000       0.15588300      -0.00901900
C        2.84059000       0.00000000      13.84906000       0.08844300      -0.15711800      -0.00878300
C        0.71019000       3.68996000      13.85779000      -0.10871600       0.18420100       0.02692600
C        7.10139000       0.00000000      13.84831000       0.02801300      -0.03176200      -0.00060600
C        4.97099000       3.68996000      13.84831000       0.01014700      -0.04207300      -0.00064000
C        0.00000000       0.00000000      10.15084000      -0.08916100      -0.15443200       0.00901300
C       -2.13040000       3.68996000      10.15160000      -0.01082500      -0.03936900       0.00080800
C        4.26080000       0.00000000      10.15160000      -0.02868100      -0.02905600       0.00081300
C        2.13040000       3.68996000      10.14216000       0.10791300       0.18689600      -0.02657800
C        0.00000000       2.46002000      10.14222000      -0.21119900      -0.00052800      -0.02690700
C       -2.13040000       6.14998000      10.15172000       0.04410700       0.00978400       0.00085900
C        4.26080000       2.46002000      10.15096000       0.18288500      -0.00052400       0.00912400
C        2.13040000       6.14998000      10.15172000       0.04409700      -0.01084700       0.00088000
C        2.13044000       1.23001000      10.14222000       0.10514400      -0.18315600      -0.02690000
C        0.00004000       4.91997000      10.15096000      -0.09190200       0.15813100       0.00911600
C        6.39124000       1.23001000      10.15172000      -0.01357900       0.04309000       0.00085700
C        4.26084000       4.91997000      10.15172000      -0.03144200       0.03276300       0.00088300
C        7.10130000       2.46002000      10.15094000      -0.18030100      -0.00196600       0.00877700
C       -3.55069000       6.14998000      10.15169000      -0.04151100       0.00838000       0.00060700
C        2.84050000       2.46002000      10.14221000       0.21387100      -0.00205700      -0.02692100
C        0.71010000       6.14998000      10.15169000      -0.04151000      -0.01224900       0.00063900
C        0.71015000       1.23001000      10.14220000      -0.10696300      -0.18528000      -0.02712200
C       -1.42025000       4.91997000      10.15169000       0.02953900       0.03052600       0.00060900
C        4.97095000       1.23001000      10.15169000       0.01166500       0.04084300       0.00061300
C        2.84055000       4.91997000      10.15094000       0.09000000       0.15588300       0.00901900
C        2.84059000       0.00000000      10.15094000       0.08844300      -0.15711800       0.00878300
C        0.71019000       3.68996000      10.14221000      -0.10871600       0.18420100      -0.02692600
C        7.10139000       0.00000000      10.15169000       0.02801300      -0.03176200       0.00060600
C        4.97099000       3.68996000      10.15169000       0.01014700      -0.04207300       0.00064000
Li       1.42024000       2.45999000      12.00000000      -0.00006400      -0.00016100      -0.00000000
49
Lattice="8.52159977 0.0 0.0 -4.260799885 7.379921881 0.0 0.0 0.0 24.0" Properties=species:S:1:pos:R:3:forces:R:3 stress="-0.0059467288913769185 3.2580677637110607e-06 -0.0 3.2580677637110607e-06 -0.005942971502883136 -0.0 -0.0 -0.0 0.0037674373234743938" free_energy=-447.96005467 energy=-447.95653579 pbc="T T T"
C        0.00000000       0.00000000      13.84914000      -0.08890000      -0.15397900       0.00131900
C       -2.13040000       3.68996000      13.84739000      -0.01072200      -0.03900200      -0.00326900
C        4.26080000       0.00000000      13.84739000      -0.02841600      -0.02878400      -0.00327500
C        2.13040000       3.68996000      13.86217000       0.10772600       0.18657500       0.01145000
C        0.00000000       2.46002000      13.86214000      -0.21081500      -0.00051900       0.01238300
C       -2.13040000       6.14998000      13.84724000       0.04373700       0.00969600      -0.00294500
C        4.26080000       2.46002000      13.84898000       0.18234400      -0.00052700       0.00147000
C        2.13040000       6.14998000      13.84724000       0.04372800      -0.01076300      -0.00308200
C        2.13044000       1.23001000      13.86213000       0.10495900      -0.18282100       0.01238200
C        0.00004000       4.91997000      13.84898000      -0.09163200       0.15765900       0.00147800
C        6.39124000       1.23001000      13.84724000      -0.01347100       0.04272500      -0.00294200
C        4.26084000       4.91997000      13.84724000      -0.03118600       0.03248600      -0.00308400
C        7.10130000       2.46002000      13.84903000      -0.17977600      -0.00196800       0.00143700
C       -3.55069000       6.14998000      13.84729000      -0.04115200       0.00831400      -0.00320200
C        2.84050000       2.46002000      13.86214000       0.21349200      -0.00204900       0.01190100
C        0.71010000       6.14998000      13.84728000      -0.04115200      -0.01213600      -0.00326700
C        0.71015000       1.23001000      13.86218000      -0.10677200      -0.18494600       0.01217700
C       -1.42025000       4.91997000      13.84728000       0.02926500       0.03022600      -0.00321600
C        4.97095000       1.23001000      13.84728000       0.01154300       0.04045600      -0.00322300
C        2.84055000       4.91997000      13.84901000       0.08973100       0.15541900       0.00107600
C        2.84059000       0.00000000      13.84903000       0.08817900      -0.15666600       0.00142900
C        0.71019000       3.68996000      13.86215000      -0.10851900       0.18387500       0.01190300
C        7.10139000       0.00000000      13.84729000       0.02777600      -0.03148500      -0.00319900
C        4.97099000       3.68996000      13.84728000       0.01006700      -0.04170700      -0.00327100
C        0.00000000       0.00000000      10.15086000      -0.08890000      -0.15397900      -0.00131900
C       -2.13040000       3.68996000      10.15261000      -0.01072200      -0.03900200       0.00326900
C        4.26080000       0.00000000      10.15261000      -0.02841600      -0.02878400       0.00327500
C        2.13040000       3.68996000      10.13783000       0.10772600       0.18657500      -0.01145000
C        0.00000000       2.46002000      10.13786000      -0.21081500      -0.00051900      -0.01238300
C       -2.13040000       6.14998000      10.15276000       0.04373700       0.00969600       0.00294500
C        4.26080000       2.46002000      10.15102000       0.18234400      -0.00052700      -0.00147000
C        2.13040000       6.14998000      10.15276000       0.04372800      -0.01076300       0.00308200
C        2.13044000       1.23001000      10.13787000       0.10495900      -0.18282100      -0.01238200
C        0.00004000       4.91997000      10.15102000      -0.09163200       0.15765900      -0.00147800
C        6.39124000       1.23001000      10.15276000      -0.01347100       0.04272500       0.00294200
C        4.26084000       4.91997000      10.15276000      -0.03118600       0.03248600       0.00308400
C        7.10130000       2.46002000      10.15097000      -0.17977600      -0.00196800      -0.00143700
C       -3.55069000       6.14998000      10.15271000      -0.04115200       0.00831400       0.00320200
C        2.84050000       2.46002000      10.13786000       0.21349200      -0.00204900      -0.01190100
C        0.71010000       6.14998000      10.15272000      -0.04115200      -0.01213600       0.00326700
C        0.71015000       1.23001000      10.13782000      -0.10677200      -0.18494600      -0.01217700
C       -1.42025000       4.91997000      10.15272000       0.02926500       0.03022600       0.00321600
C        4.97095000       1.23001000      10.15272000       0.01154300       0.04045600       0.00322300
C        2.84055000       4.91997000      10.15099000       0.08973100       0.15541900      -0.00107600
C        2.84059000       0.00000000      10.15097000       0.08817900      -0.15666600      -0.00142900
C        0.71019000       3.68996000      10.13785000      -0.10851900       0.18387500      -0.01190300
C        7.10139000       0.00000000      10.15271000       0.02777600      -0.03148500       0.00319900
C        4.97099000       3.68996000      10.15272000       0.01006700      -0.04170700       0.00327100
Li       1.42023000       2.45996000      12.00000000      -0.00006800      -0.00015500       0.00000000
49
Lattice="8.52159977 0.0 0.0 -4.260799885 7.379921881 0.0 0.0 0.0 24.0" Properties=species:S:1:pos:R:3:forces:R:3 stress="-0.005939626053991663 3.2331017272075278e-06 -0.0 3.2331017272075278e-06 -0.005935893631534385 -0.0 -0.0 -0.0 0.0038112090269742127" free_energy=-447.96086992 energy=-447.9573802 pbc="T T T"
C        0.00000000       0.00000000      13.84962000      -0.08847900      -0.15325100       0.00465300
C       -2.13040000       3.68996000      13.84593000      -0.01050200      -0.03867800      -0.00332800
C        4.26080000       0.00000000      13.84592000      -0.02824600      -0.02843200      -0.00333500
C        2.13040000       3.68996000      13.86705000       0.10775900       0.18663500       0.00981000
C        0.00000000       2.46002000      13.86712000      -0.21087000      -0.00050400       0.01065000
C       -2.13040000       6.14998000      13.84577000       0.04334500       0.00973500      -0.00285100
C        4.26080000       2.46002000      13.84943000       0.18148400      -0.00053200       0.00478000
C        2.13040000       6.14998000      13.84576000       0.04334300      -0.01081000      -0.00314800
C        2.13044000       1.23001000      13.86712000       0.10500000      -0.18286400       0.01065200
C        0.00004000       4.91997000      13.84943000      -0.09120600       0.15691000       0.00478600
C        6.39124000       1.23001000      13.84577000      -0.01324200       0.04240500      -0.00284800
C        4.26084000       4.91997000      13.84576000      -0.03103300       0.03213000      -0.00315200
C        7.10130000       2.46002000      13.84950000      -0.17890600      -0.00198400       0.00508500
C       -3.55069000       6.14998000      13.84581000      -0.04078200       0.00838900      -0.00293200
C        2.84050000       2.46002000      13.86708000       0.21352500      -0.00199500       0.01029400
C        0.71010000       6.14998000      13.84580000      -0.04078400      -0.01213900      -0.00308400
C        0.71015000       1.23001000      13.86716000      -0.10682900      -0.18504200       0.01075700
C       -1.42025000       4.91997000      13.84581000       0.02908700       0.02983500      -0.00295600
C        4.97095000       1.23001000      13.84581000       0.01129300       0.04010700      -0.00296300
C        2.84055000       4.91997000      13.84943000       0.08931300       0.15469400       0.00445500
C        2.84059000       0.00000000      13.84950000       0.08773200      -0.15592300       0.00507900
C        0.71019000       3.68996000      13.86708000      -0.10848900       0.18392800       0.01029300