49
Lattice="8.52159977 0.0 0.0 -4.260799885 7.379921881 0.0 0.0 0.0 24.0" Properties=species:S:1:pos:R:3:forces:R:3 stress="-0.003867513680798806 3.208135690703995e-06 -0.0 3.208135690703995e-06 -0.0038638249489054088 -0.0 -0.0 -0.0 -0.01259104005020818" free_energy=-445.65567169 energy=-445.65261152 pbc="T T T"
C        0.00000000       0.00000000      13.50000000      -0.08510400      -0.14740600       0.24571700
C       -2.13040000       3.68996000      13.50000000      -0.00950300      -0.05803000       0.29480500
C        4.26080000       0.00000000      13.50000000      -0.04549900      -0.03723800       0.29480600
C        2.13040000       3.68996000      13.50000000       0.21771900       0.37707500       0.67810400
C        0.00000000       2.46002000      13.50000000      -0.43077900      -0.00053800       0.67810000
C       -2.13040000       6.14998000      13.50000000       0.05959200       0.02025300       0.29480700
C        4.26080000       2.46002000      13.50000000       0.17477200      -0.00052700       0.24573300
C        2.13040000       6.14998000      13.50000000       0.05958700      -0.02132700       0.29480600
C        2.13044000       1.23001000      13.50000000       0.21490300      -0.37327300       0.67801800
C        0.00004000       4.91997000      13.50000000      -0.08784900       0.15110700       0.24574000
C        6.39124000       1.23001000      13.50000000      -0.01225300       0.06173700       0.29480700
C        4.26084000       4.91997000      13.50000000      -0.04826200       0.04093200       0.29480800
C        7.10130000       2.46002000      13.50000000      -0.17211700      -0.00209100       0.24573200
C       -3.55069000       6.14998000      13.50000000      -0.05692100       0.01871600       0.29480600
C        2.84050000       2.46002000      13.50000000       0.43346900      -0.00208500       0.67810600
C        0.71010000       6.14998000      13.50000000      -0.05692500      -0.02287100       0.29480600
C        0.71015000       1.23001000      13.50000000      -0.21674100      -0.37543000       0.67807300
C       -1.42025000       4.91997000      13.50000000       0.04643300       0.03884000       0.29481100
C        4.97095000       1.23001000      13.50000000       0.01041800       0.05962500       0.29481300
C        2.84055000       4.91997000      13.50000000       0.08603200       0.14901000       0.24574400
C        2.84059000       0.00000000      13.50000000       0.08424000      -0.15009000       0.24572500
C        0.71019000       3.68996000      13.50000000      -0.21856200       0.37441400       0.67818800
C        7.10139000       0.00000000      13.50000000       0.04466900      -0.03994500       0.29480500
C        4.97099000       3.68996000      13.50000000       0.00866000      -0.06073100       0.29480500
C        0.00000000       0.00000000      10.50000000      -0.08510400      -0.14740600      -0.24571700
C       -2.13040000       3.68996000      10.50000000      -0.00950300      -0.05803000      -0.29480500
C        4.26080000       0.00000000      10.50000000      -0.04549900      -0.03723800      -0.29480600
C        2.13040000       3.68996000      10.50000000       0.21771900       0.37707500      -0.67810400
C        0.00000000       2.46002000      10.50000000      -0.43077900      -0.00053800      -0.67810000
C       -2.13040000       6.14998000      10.50000000       0.05959200       0.02025300      -0.29480700
C        4.26080000       2.46002000      10.50000000       0.17477200      -0.00052700      -0.24573300
C        2.13040000       6.14998000      10.50000000       0.05958700      -0.02132700      -0.29480600
C        2.13044000       1.23001000      10.50000000       0.21490300      -0.37327300      -0.67801800
C        0.00004000       4.91997000      10.50000000      -0.08784900       0.15110700      -0.24574000
C        6.39124000       1.23001000      10.50000000      -0.01225300       0.06173700      -0.29480700
C        4.26084000       4.91997000      10.50000000      -0.04826200       0.04093200      -0.29480800
C        7.10130000       2.46002000      10.50000000      -0.17211700      -0.00209100      -0.24573200
C       -3.55069000       6.14998000      10.50000000      -0.05692100       0.01871600      -0.29480600
C        2.84050000       2.46002000      10.50000000       0.43346900      -0.00208500      -0.67810600
C        0.71010000       6.14998000      10.50000000      -0.05692500      -0.02287100      -0.29480600
C        0.71015000       1.23001000      10.50000000      -0.21674100      -0.37543000      -0.67807300
C       -1.42025000       4.91997000      10.50000000       0.04643300       0.03884000      -0.29481100
C        4.97095000       1.23001000      10.50000000       0.01041800       0.05962500      -0.29481300
C        2.84055000       4.91997000      10.50000000       0.08603200       0.14901000      -0.24574400
C        2.84059000       0.00000000      10.50000000       0.08424000      -0.15009000      -0.24572500
C        0.71019000       3.68996000      10.50000000      -0.21856200       0.37441400      -0.67818800
C        7.10139000       0.00000000      10.50000000       0.04466900      -0.03994500      -0.29480500
C        4.97099000       3.68996000      10.50000000       0.00866000      -0.06073100      -0.29480500
Li       1.42025000       2.46002000      12.00000000       0.00004100      -0.00025500      -0.00000000
49
Lattice="8.52159977 0.0 0.0 -4.260799885 7.379921881 0.0 0.0 0.0 24.0" Properties=species:S:1:pos:R:3:forces:R:3 stress="-0.0045819729889295365 3.1769281450745782e-06 -0.0 3.1769281450745782e-06 -0.004578315464581768 -0.0 -0.0 -0.0 -0.011082504743536949" free_energy=-446.03054294 energy=-446.02744135 pbc="T T T"
C        0.00000000       0.00000000      13.51185000      -0.08681700      -0.15037100       0.33104400
C       -2.13040000       3.68996000      13.51422000      -0.00663600      -0.05435000       0.23948200
C        4.26080000       0.00000000      13.51422000      -0.04374700      -0.03291900       0.23947900
C        2.13040000       3.68996000      13.53271000       0.20279700       0.35123600       0.52740100
C        0.00000000       2.46002000      13.53271000      -0.40095300      -0.00054800       0.52880800
C       -2.13040000       6.14998000      13.51422000       0.05497300       0.02089500       0.24067200
C        4.26080000       2.46002000      13.51185000       0.17819300      -0.00052000       0.33214100
C        2.13040000       6.14998000      13.51422000       0.05495900      -0.02196900       0.24068800
C        2.13044000       1.23001000      13.53271000       0.19998900      -0.34746900       0.52878000
C        0.00004000       4.91997000      13.51186000      -0.08955300       0.15406900       0.33216400
C        6.39124000       1.23001000      13.51422000      -0.00938800       0.05805700       0.24067200
C        4.26084000       4.91997000      13.51422000      -0.04650500       0.03660700       0.24068400
C        7.10130000       2.46002000      13.51185000      -0.17562400      -0.00194400       0.33203000
C       -3.55069000       6.14998000      13.51422000      -0.05241600       0.01955000       0.24057600
C        2.84050000       2.46002000      13.53271000       0.40323900      -0.00138500       0.52851200
C        0.71010000       6.14998000      13.51422000      -0.05241500      -0.02332100       0.24057400
C        0.71015000       1.23001000      13.53271000      -0.20224600      -0.35032100       0.52843400
C       -1.42025000       4.91997000      13.51422000       0.04456700       0.03433200       0.24058300
C        4.97095000       1.23001000      13.51422000       0.00744700       0.05575800       0.24057900
C        2.84055000       4.91997000      13.51186000       0.08766800       0.15184500       0.33207900
C        2.84059000       0.00000000      13.51185000       0.08612400      -0.15305800       0.33200900
C        0.71019000       3.68996000      13.53272000      -0.20283100       0.34856300       0.52854000
C        7.10139000       0.00000000      13.51422000       0.04314000      -0.03562300       0.24057900
C        4.97099000       3.68996000      13.51422000       0.00601300      -0.05705300       0.24057300
C        0.00000000       0.00000000      10.48815000      -0.08681700      -0.15037100      -0.33104400
C       -2.13040000       3.68996000      10.48578000      -0.00663600      -0.05435000      -0.23948200
C        4.26080000       0.00000000      10.48578000      -0.04374700      -0.03291900      -0.23947900
C        2.13040000       3.68996000      10.46729000       0.20279700       0.35123600      -0.52740100
C        0.00000000       2.46002000      10.46729000      -0.40095300      -0.00054800      -0.52880800
C       -2.13040000       6.14998000      10.48578000       0.05497300       0.02089500      -0.24067200
C        4.26080000       2.46002000      10.48815000       0.17819300      -0.00052000      -0.33214100
C        2.13040000       6.14998000      10.48578000       0.05495900      -0.02196900      -0.24068800
C        2.13044000       1.23001000      10.46729000       0.19998900      -0.34746900      -0.52878000
C        0.00004000       4.91997000      10.48814000      -0.08955300       0.15406900      -0.33216400
C        6.39124000       1.23001000      10.48578000      -0.00938800       0.05805700      -0.24067200
C        4.26084000       4.91997000      10.48578000      -0.04650500       0.03660700      -0.24068400
C        7.10130000       2.46002000      10.48815000      -0.17562400      -0.00194400      -0.33203000
C       -3.55069000       6.14998000      10.48578000      -0.05241600       0.01955000      -0.24057600
C        2.84050000       2.46002000      10.46729000       0.40323900      -0.00138500      -0.52851200
C        0.71010000       6.14998000      10.48578000      -0.05241500      -0.02332100      -0.24057400
C        0.71015000       1.23001000      10.46729000      -0.20224600      -0.35032100      -0.52843400
C       -1.42025000       4.91997000      10.48578000       0.04456700       0.03433200      -0.24058300
C        4.97095000       1.23001000      10.48578000       0.00744700       0.05575800      -0.24057900
C        2.84055000       4.91997000      10.48814000       0.08766800       0.15184500      -0.33207900
C        2.84059000       0.00000000      10.48815000       0.08612400      -0.15305800      -0.33200900
C        0.71019000       3.68996000      10.46728000      -0.20283100       0.34856300      -0.52854000
C        7.10139000       0.00000000      10.48578000       0.04314000      -0.03562300      -0.24057900
C        4.97099000       3.68996000      10.48578000       0.00601300      -0.05705300      -0.24057300
Li       1.42025000       2.46001000      12.00000000       0.00004200      -0.00012200      -0.00000000
49
Lattice="8.52159977 0.0 0.0 -4.260799885 7.379921881 0.0 0.0 0.0 24.0" Properties=species:S:1:pos:R:3:forces:R:3 stress="-0.005137679512443426 2.977199853046314e-06 -0.0 2.977199853046314e-06 -0.005134240440915065 -0.0 -0.0 -0.0 -0.007507199795484621" free_energy=-446.7893019 energy=-446.78560329 pbc="T T T"
C        0.00000000       0.00000000      13.56206000      -0.08712400      -0.15090100       0.26799400
C       -2.13040000       3.68996000      13.55054000      -0.00068800      -0.05356600       0.20719900
C        4.26080000       0.00000000      13.55054000      -0.04604500      -0.02737900       0.20717700
C        2.13040000       3.68996000      13.61270000       0.17815800       0.30856700       0.28920700
C        0.00000000       2.46002000      13.61292000      -0.35173700      -0.00053000       0.28580500
C       -2.13040000       6.14998000      13.55073000       0.05131300       0.02559800       0.20600800
C        4.26080000       2.46002000      13.56223000       0.17895900      -0.00053200       0.26591000
C        2.13040000       6.14998000      13.55073000       0.05129800      -0.02670100       0.20603200
C        2.13044000       1.23001000      13.61291000       0.17540800      -0.30486300       0.28582400
C        0.00004000       4.91997000      13.56223000      -0.08994200       0.15471800       0.26591400
C        6.39124000       1.23001000      13.55073000      -0.00348700       0.05723700       0.20602700
C        4.26084000       4.91997000      13.55073000      -0.04877200       0.03107400       0.20602900
C        7.10130000       2.46002000      13.56221000      -0.17686700      -0.00097500       0.26544500
C       -3.55069000       6.14998000      13.55071000      -0.04921800       0.02508100       0.20519500
C        2.84050000       2.46002000      13.61287000       0.35437200      -0.00197600       0.28582700
C        0.71010000       6.14998000      13.55071000      -0.04923800      -0.02722500       0.20513600
C        0.71015000       1.23001000      13.61286000      -0.17730000      -0.30710400       0.28603200
C       -1.42025000       4.91997000      13.55071000       0.04632200       0.02797800       0.20511400
C        4.97095000       1.23001000      13.55071000       0.00106900       0.05410400       0.20509100
C        2.84055000       4.91997000      13.56222000       0.08755400       0.15165000       0.26533800
C        2.84059000       0.00000000      13.56221000       0.08758800      -0.15365800       0.26543900
C        0.71019000       3.68996000      13.61288000      -0.17889900       0.30592300       0.28580900
C        7.10139000       0.00000000      13.55071000       0.04633100      -0.03008600       0.20519900
C        4.97099000       3.68996000      13.55071000       0.00104200      -0.05625400       0.20511600
C        0.00000000       0.00000000      10.43794000      -0.08712400      -0.15090100      -0.26799400
C       -2.13040000       3.68996000      10.44946000      -0.00068800      -0.05356600      -0.20719900
C        4.26080000       0.00000000      10.44946000      -0.04604500      -0.02737900      -0.20717700
C        2.13040000       3.68996000      10.38730000       0.17815800       0.30856700      -0.28920700
C        0.00000000       2.46002000      10.38708000      -0.35173700      -0.00053000      -0.28580500
C       -2.13040000       6.14998000      10.44927000       0.05131300       0.02559800      -0.20600800
C        4.26080000       2.46002000      10.43777000       0.17895900      -0.00053200      -0.26591000
C        2.13040000       6.14998000      10.44927000       0.05129800      -0.02670100      -0.20603200
C        2.13044000       1.23001000      10.38709000       0.17540800      -0.30486300      -0.28582400
C        0.00004000       4.91997000      10.43777000      -0.08994200       0.15471800      -0.26591400
C        6.39124000       1.23001000      10.44927000      -0.00348700       0.05723700      -0.20602700
C        4.26084000       4.91997000      10.44927000      -0.04877200       0.03107400      -0.20602900
C        7.10130000       2.46002000      10.43779000      -0.17686700      -0.00097500      -0.26544500
C       -3.55069000       6.14998000      10.44929000      -0.04921800       0.02508100      -0.20519500
C        2.84050000       2.46002000      10.38713000       0.35437200      -0.00197600      -0.28582700
C        0.71010000       6.14998000      10.44929000      -0.04923800      -0.02722500      -0.20513600
C        0.71015000       1.23001000      10.38714000      -0.17730000      -0.30710400      -0.28603200
C       -1.42025000       4.91997000      10.44929000       0.04632200       0.02797800      -0.20511400
C        4.97095000       1.23001000      10.44929000       0.00106900       0.05410400      -0.20509100
C        2.84055000       4.91997000      10.43778000       0.08755400       0.15165000      -0.26533800
C        2.84059000       0.00000000      10.43779000       0.08758800      -0.15365800      -0.26543900
C        0.71019000       3.68996000      10.38712000      -0.17889900       0.30592300      -0.28580900
C        7.10139000       0.00000000      10.44929000       0.04633100      -0.03008600      -0.20519900
C        4.97099000       3.68996000      10.44929000       0.00104200      -0.05625400      -0.20511600
Li       1.42026000       2.45999000      12.00000000      -0.00019300      -0.00036200      -0.00000000
49
Lattice="8.52159977 0.0 0.0 -4.260799885 7.379921881 0.0 0.0 0.0 24.0" Properties=species:S:1:pos:R:3:forces:R:3 stress="-0.004779984865948182 3.4640375648652083e-06 -0.0 3.4640375648652083e-06 -0.004775984058598492 -0.0 -0.0 -0.0 -0.0017402950235335254" free_energy=-447.45594792 energy=-447.4529924 pbc="T T T"
C        0.00000000       0.00000000      13.64800000      -0.07162200      -0.12404900       0.11571500
C       -2.13040000       3.68996000      13.61435000       0.01442000      -0.05391400       0.16309800
C        4.26080000       0.00000000      13.61435000      -0.05390000      -0.01447200       0.16308800
C        2.13040000       3.68996000      13.73269000       0.17179700       0.29755600       0.03713000
C        0.00000000       2.46002000      13.73271000      -0.33914900      -0.00056700       0.03646100
C       -2.13040000       6.14998000      13.61458000       0.04410500       0.03873000       0.15995400
C        4.26080000       2.46002000      13.64809000       0.14794500      -0.00048900       0.11565700
C        2.13040000       6.14998000      13.61459000       0.04400800      -0.03984700       0.15976300
C        2.13044000       1.23001000      13.73270000       0.16908600      -0.29399400       0.03649000
C        0.00004000       4.91997000      13.64810000      -0.07439600       0.12787800       0.11566200
C        6.39124000       1.23001000      13.61458000       0.01149000       0.05756100       0.15995500
C        4.26084000       4.91997000      13.61458000      -0.05651200       0.01819000       0.15975300
C        7.10130000       2.46002000      13.64800000      -0.14527900      -0.00143600       0.11747600
C       -3.55069000       6.14998000      13.61445000      -0.04141100       0.03740400       0.16313600
C        2.84050000       2.46002000      13.73262000       0.34153600      -0.00190200       0.03891000
C        0.71010000       6.14998000      13.61444000      -0.04146600      -0.04150900       0.16271200
C        0.71015000       1.23001000      13.73262000      -0.17088600      -0.29598800       0.03847200
C       -1.42025000       4.91997000      13.61444000       0.05475200       0.01609800       0.16243100
C        4.97095000       1.23001000      13.61444000      -0.01343200       0.05546600       0.16242200
C        2.84055000       4.91997000      13.64800000       0.07211600       0.12491200       0.11908500
C        2.84059000       0.00000000      13.64799000       0.07139600      -0.12653500       0.11747300
C        0.71019000       3.68996000      13.73263000      -0.17241300       0.29482800       0.03888000
C        7.10139000       0.00000000      13.61445000       0.05309900      -0.01716000       0.16314600
C        4.97099000       3.68996000      13.61444000      -0.01521300      -0.05666500       0.16271200
C        0.00000000       0.00000000      10.35200000      -0.07162200      -0.12404900      -0.11571500
C       -2.13040000       3.68996000      10.38565000       0.01442000      -0.05391400      -0.16309800
C        4.26080000       0.00000000      10.38565000      -0.05390000      -0.01447200      -0.16308800
C        2.13040000       3.68996000      10.26731000       0.17179700       0.29755600      -0.03713000
C        0.00000000       2.46002000      10.26729000      -0.33914900      -0.00056700      -0.03646100
C       -2.13040000       6.14998000      10.38542000       0.04410500       0.03873000      -0.15995400
C        4.26080000       2.46002000      10.35191000       0.14794500      -0.00048900      -0.11565700
C        2.13040000       6.14998000      10.38541000       0.04400800      -0.03984700      -0.15976300
C        2.13044000       1.23001000      10.26730000       0.16908600      -0.29399400      -0.03649000
C        0.00004000       4.91997000      10.35190000      -0.07439600       0.12787800      -0.11566200
C        6.39124000       1.23001000      10.38542000       0.01149000       0.05756100      -0.15995500
C        4.26084000       4.91997000      10.38542000      -0.05651200       0.01819000      -0.15975300
C        7.10130000       2.46002000      10.35200000      -0.14527900      -0.00143600      -0.11747600
C       -3.55069000       6.14998000      10.38555000      -0.04141100       0.03740400      -0.16313600
C        2.84050000       2.46002000      10.26738000       0.34153600      -0.00190200      -0.03891000
C        0.71010000       6.14998000      10.38556000      -0.04146600      -0.04150900      -0.16271200
C        0.71015000       1.23001000      10.26738000      -0.17088600      -0.29598800      -0.03847200
C       -1.42025000       4.91997000      10.38556000       0.05475200       0.01609800      -0.16243100
C        4.97095000       1.23001000      10.38556000      -0.01343200       0.05546600      -0.16242200
C        2.84055000       4.91997000      10.35200000       0.07211600       0.12491200      -0.11908500
C        2.84059000       0.00000000      10.35201000       0.07139600      -0.12653500      -0.11747300
C        0.71019000       3.68996000      10.26737000      -0.17241300       0.29482800      -0.03888000
C        7.10139000       0.00000000      10.38555000       0.05309900      -0.01716000      -0.16314600
C        4.97099000       3.68996000      10.38556000      -0.01521300      -0.05666500      -0.16271200
Li       1.42024000       2.45993000      12.00000000      -0.00013900      -0.00018600       0.00000000
49
Lattice="8.52159977 0.0 0.0 -4.260799885 7.379921881 0.0 0.0 0.0 24.0" Properties=species:S:1:pos:R:3:forces:R:3 stress="-0.00463768469938717 3.5139696378722745e-06 -0.0 3.5139696378722745e-06 -0.004633627718455347 -0.0 -0.0 -0.0 0.0001808914174863486" free_energy=-447.62616069 energy=-447.62318647 pbc="T T T"
C        0.00000000       0.00000000      13.69024000      -0.06495900      -0.11251100       0.07928100
C       -2.13040000       3.68996000      13.65098000       0.01784000      -0.05640100       0.12758900
C        4.26080000       0.00000000      13.65098000      -0.05776300      -0.01275400       0.12758200
C        2.13040000       3.68996000      13.78476000       0.17049400       0.29530100      -0.05626100
C        0.00000000       2.46002000      13.78472000      -0.33651300      -0.00062200      -0.05510100
C       -2.13040000       6.14998000      13.65103000       0.04455500       0.04307800       0.12876000
C        4.26080000       2.46002000      13.69033000       0.13464800      -0.00049300       0.07629600
C        2.13040000       6.14998000      13.65103000       0.04446700      -0.04431300       0.12966700
C        2.13044000       1.23001000      13.78471000       0.16772100      -0.29174300      -0.05508800
C        0.00004000       4.91997000      13.69034000      -0.06775200       0.11636300       0.07628800
C        6.39124000       1.23001000      13.65104000       0.01503100       0.06012500       0.12876100
C        4.26084000       4.91997000      13.65103000      -0.06061000       0.01635600       0.12966200
C        7.10130000       2.46002000      13.69034000      -0.13274200      -0.00099500       0.07562300
C       -3.55069000       6.14998000      13.65109000      -0.04215300       0.04213800       0.12659300
C        2.84050000       2.46002000      13.78478000       0.33876200      -0.00101100      -0.05671400
C        0.71010000       6.14998000      13.65105000      -0.04220200      -0.04506600       0.12764400
C        0.71015000       1.23001000      13.78475000      -0.17026300      -0.29490800      -0.05731800
C       -1.42025000       4.91997000      13.65103000       0.05825500       0.01375000       0.12778900
C        4.97095000       1.23001000      13.65103000      -0.01721500       0.05732700       0.12778400
C        2.84055000       4.91997000      13.69046000       0.06554500       0.11353000       0.07500300
C        2.84059000       0.00000000      13.69033000       0.06550700      -0.11545400       0.07563000
C        0.71019000       3.68996000      13.78479000      -0.17025200       0.29286700      -0.05672600
C        7.10139000       0.00000000      13.65110000       0.05756800      -0.01543400       0.12659800
C        4.97099000       3.68996000      13.65105000      -0.01792400      -0.05908100       0.12764300
C        0.00000000       0.00000000      10.30976000      -0.06495900      -0.11251100      -0.07928100
C       -2.13040000       3.68996000      10.34902000       0.01784000      -0.05640100      -0.12758900
C        4.26080000       0.00000000      10.34902000      -0.05776300      -0.01275400      -0.12758200
C        2.13040000       3.68996000      10.21524000       0.17049400       0.29530100       0.05626100
C        0.00000000       2.46002000      10.21528000      -0.33651300      -0.00062200       0.05510100
C       -2.13040000       6.14998000      10.34897000       0.04455500       0.04307800      -0.12876000
C        4.26080000       2.46002000      10.30967000       0.13464800      -0.00049300      -0.07629600
C        2.13040000       6.14998000      10.34897000       0.04446700      -0.04431300      -0.12966700
C        2.13044000       1.23001000      10.21529000       0.16772100      -0.29174300       0.05508800
C        0.00004000       4.91997000      10.30966000      -0.06775200       0.11636300      -0.07628800
C        6.39124000       1.23001000      10.34896000       0.01503100       0.06012500      -0.12876100
C        4.26084000       4.91997000      10.34897000      -0.06061000       0.01635600      -0.12966200
C        7.10130000       2.46002000      10.30966000      -0.13274200      -0.00099500      -0.07562300
C       -3.55069000       6.14998000      10.34891000      -0.04215300       0.04213800      -0.12659300
C        2.84050000       2.46002000      10.21522000       0.33876200      -0.00101100       0.05671400
C        0.71010000       6.14998000      10.34895000      -0.04220200      -0.04506600      -0.12764400
C        0.71015000       1.23001000      10.21525000      -0.17026300      -0.29490800       0.05731800
C       -1.42025000       4.91997000      10.34897000       0.05825500       0.01375000      -0.12778900
C        4.97095000       1.23001000      10.34897000      -0.01721500       0.05732700      -0.12778400
C        2.84055000       4.91997000      10.30954000       0.06554500       0.11353000      -0.07500300
C        2.84059000       0.00000000      10.30967000       0.06550700      -0.11545400      -0.07563000
C        0.71019000       3.68996000      10.21521000      -0.17025200       0.29286700       0.05672600
C        7.10139000       0.00000000      10.34890000       0.05756800      -0.01543400      -0.12659800
C        4.97099000       3.68996000      10.34895000      -0.01792400      -0.05908100      -0.12764300
Li       1.42023000       2.45989000      12.00000000      -0.00009100      -0.00010000       0.00000000
49
Lattice="8.52159977 0.0 0.0 -4.260799885 7.379921881 0.0 0.0 0.0 24.0" Properties=species:S:1:pos:R:3:forces:R:3 stress="-0.004680588833118492 3.0583394716827964e-06 -0.0 3.0583394716827964e-06 -0.004677056138953242 -0.0 -0.0 -0.0 0.0015078112916126255" free_energy=-447.69844326 energy=-447.69546566 pbc="T T T"
C        0.00000000       0.00000000      13.71456000      -0.06650800      -0.11519500       0.06011500
C       -2.13040000       3.68996000      13.67482000       0.01574200      -0.05551200       0.09457600
C        4.26080000       0.00000000      13.67481000      -0.05594500      -0.01412700       0.09457800
C        2.13040000       3.68996000      13.80613000       0.16436600       0.28468900      -0.04934100
C        0.00000000       2.46002000      13.80616000      -0.32444100      -0.00057200      -0.05075800
C       -2.13040000       6.14998000      13.67494000       0.04483100       0.04076500       0.09344700
C        4.26080000       2.46002000      13.71444000       0.13718800      -0.00049900       0.06062200
C        2.13040000       6.14998000      13.67501000       0.04475500      -0.04191900       0.09329900
C        2.13044000       1.23001000      13.80615000       0.16172900      -0.28126500      -0.05075200
C        0.00004000       4.91997000      13.71445000      -0.06902800       0.11856200       0.06061700
C        6.39124000       1.23001000      13.67495000       0.01289000       0.05920900       0.09344300
C        4.26084000       4.91997000      13.67500000      -0.05868200       0.01780200       0.09329600
C        7.10130000       2.46002000      13.71441000      -0.13466900      -0.00153200       0.06141500
C       -3.55069000       6.14998000      13.67487000      -0.04278000       0.04053100       0.09641800
C        2.84050000       2.46002000      13.80612000       0.32633700      -0.00091100      -0.04949200
C        0.71010000       6.14998000      13.67490000      -0.04275800      -0.04242800       0.09467600
C        0.71015000       1.23001000      13.80604000      -0.16402600      -0.28410400      -0.04772400
C       -1.42025000       4.91997000      13.67488000       0.05622000       0.01471600       0.09437300
C        4.97095000       1.23001000      13.67488000      -0.01536100       0.05604800       0.09437400
C        2.84055000       4.91997000      13.71450000       0.06700300       0.11605300       0.06192000
C        2.84059000       0.00000000      13.71440000       0.06600600      -0.11739100       0.06141900
C        0.71019000       3.68996000      13.80613000      -0.16395300       0.28215500      -0.04949800