49
Lattice="8.52159977 0.0 0.0 -4.260799885 7.379921881 0.0 0.0 0.0 24.0" Properties=species:S:1:pos:R:3:forces:R:3 stress="-0.005842851454994843 3.1519621085710453e-06 -0.0 3.1519621085710453e-06 -0.005839218896683579 -0.0 -0.0 -0.0 -0.006159608043133417" free_energy=-447.0006342 energy=-446.99774072 pbc="T T T"
C        0.00000000       0.00000000      13.60000000      -0.08936500      -0.15478800       0.09422700
C       -2.13040000       3.68996000      13.60000000      -0.00921700      -0.05382200       0.14017500
C        4.26080000       0.00000000      13.60000000      -0.04199900      -0.03488900       0.14017600
C        2.13040000       3.68996000      13.60000000       0.17168600       0.29734900       0.41199000
C        0.00000000       2.46002000      13.60000000      -0.33872800      -0.00054700       0.41055900
C       -2.13040000       6.14998000      13.60000000       0.05581800       0.01839200       0.13881500
C        4.26080000       2.46002000      13.60000000       0.18330100      -0.00052800       0.09287400
C        2.13040000       6.14998000      13.60000000       0.05581200      -0.01947500       0.13881500
C        2.13044000       1.23001000      13.60000000       0.16887800      -0.29357900       0.41049900
C        0.00004000       4.91997000      13.60000000      -0.09211500       0.15849400       0.09287800
C        6.39124000       1.23001000      13.60000000      -0.01197800       0.05753700       0.13881500
C        4.26084000       4.91997000      13.60000000      -0.04477200       0.03859100       0.13881600
C        7.10130000       2.46002000      13.60000000      -0.18083100      -0.00176400       0.09301000
C       -3.55069000       6.14998000      13.60000000      -0.05332900       0.01718400       0.13895000
C        2.84050000       2.46002000      13.60000000       0.34122500      -0.00174200       0.41070500
C        0.71010000       6.14998000      13.60000000      -0.05333000      -0.02069000       0.13895000
C        0.71015000       1.23001000      13.60000000      -0.17091700      -0.29606000       0.41066400
C       -1.42025000       4.91997000      13.60000000       0.04274700       0.03617200       0.13895500
C        4.97095000       1.23001000      13.60000000       0.00994900       0.05510000       0.13895600
C        2.84055000       4.91997000      13.60000000       0.09010600       0.15606800       0.09302000
C        2.84059000       0.00000000      13.60000000       0.08888100      -0.15747200       0.09300600
C        0.71019000       3.68996000      13.60000000      -0.17213200       0.29468200       0.41076500
C        7.10139000       0.00000000      13.60000000       0.04154600      -0.03759900       0.13894900
C        4.97099000       3.68996000      13.60000000       0.00874900      -0.05652800       0.13895000
C        0.00000000       0.00000000      10.40000000      -0.08936500      -0.15478800      -0.09422700
C       -2.13040000       3.68996000      10.40000000      -0.00921700      -0.05382200      -0.14017500
C        4.26080000       0.00000000      10.40000000      -0.04199900      -0.03488900      -0.14017600
C        2.13040000       3.68996000      10.40000000       0.17168600       0.29734900      -0.41199000
C        0.00000000       2.46002000      10.40000000      -0.33872800      -0.00054700      -0.41055900
C       -2.13040000       6.14998000      10.40000000       0.05581800       0.01839200      -0.13881500
C        4.26080000       2.46002000      10.40000000       0.18330100      -0.00052800      -0.09287400
C        2.13040000       6.14998000      10.40000000       0.05581200      -0.01947500      -0.13881500
C        2.13044000       1.23001000      10.40000000       0.16887800      -0.29357900      -0.41049900
C        0.00004000       4.91997000      10.40000000      -0.09211500       0.15849400      -0.09287800
C        6.39124000       1.23001000      10.40000000      -0.01197800       0.05753700      -0.13881500
C        4.26084000       4.91997000      10.40000000      -0.04477200       0.03859100      -0.13881600
C        7.10130000       2.46002000      10.40000000      -0.18083100      -0.00176400      -0.09301000
C       -3.55069000       6.14998000      10.40000000      -0.05332900       0.01718400      -0.13895000
C        2.84050000       2.46002000      10.40000000       0.34122500      -0.00174200      -0.41070500
C        0.71010000       6.14998000      10.40000000      -0.05333000      -0.02069000      -0.13895000
C        0.71015000       1.23001000      10.40000000      -0.17091700      -0.29606000      -0.41066400
C       -1.42025000       4.91997000      10.40000000       0.04274700       0.03617200      -0.13895500
C        4.97095000       1.23001000      10.40000000       0.00994900       0.05510000      -0.13895600
C        2.84055000       4.91997000      10.40000000       0.09010600       0.15606800      -0.09302000
C        2.84059000       0.00000000      10.40000000       0.08888100      -0.15747200      -0.09300600
C        0.71019000       3.68996000      10.40000000      -0.17213200       0.29468200      -0.41076500
C        7.10139000       0.00000000      10.40000000       0.04154600      -0.03759900      -0.13894900
C        4.97099000       3.68996000      10.40000000       0.00874900      -0.05652800      -0.13895000
Li       1.42025000       2.46002000      12.00000000       0.00002700      -0.00017100       0.00000000
49
Lattice="8.52159977 0.0 0.0 -4.260799885 7.379921881 0.0 0.0 0.0 24.0" Properties=species:S:1:pos:R:3:forces:R:3 stress="-0.005738156380917277 3.214377199829878e-06 -0.0 3.214377199829878e-06 -0.005734448924496502 -0.0 -0.0 -0.0 -0.005340878083545681" free_energy=-447.11825941 energy=-447.11536491 pbc="T T T"
C        0.00000000       0.00000000      13.60455000      -0.09005500      -0.15598100       0.17707500
C       -2.13040000       3.68996000      13.60676000      -0.00821700      -0.05187600       0.12243100
C        4.26080000       0.00000000      13.60676000      -0.04081500      -0.03305000       0.12242900
C        2.13040000       3.68996000      13.61988000       0.16530600       0.28629900       0.34207500
C        0.00000000       2.46002000      13.61981000      -0.32601800      -0.00053900       0.34285200
C       -2.13040000       6.14998000      13.60670000       0.05363300       0.01828100       0.12185800
C        4.26080000       2.46002000      13.60448000       0.18465500      -0.00052900       0.17644400
C        2.13040000       6.14998000      13.60670000       0.05361600      -0.01936100       0.12187700
C        2.13044000       1.23001000      13.61980000       0.16253400      -0.28257700       0.34282400
C        0.00004000       4.91997000      13.60448000      -0.09279200       0.15966300       0.17646100
C        6.39124000       1.23001000      13.60670000      -0.01098300       0.05558900       0.12185700
C        4.26084000       4.91997000      13.60670000      -0.04357400       0.03674800       0.12187400
C        7.10130000       2.46002000      13.60449000      -0.18212500      -0.00187600       0.17680000
C       -3.55069000       6.14998000      13.60670000      -0.05105000       0.01691100       0.12223900
C        2.84050000       2.46002000      13.61981000       0.32870500      -0.00206500       0.34306300
C        0.71010000       6.14998000      13.60670000      -0.05105000      -0.02073900       0.12224400
C        0.71015000       1.23001000      13.61981000      -0.16434300      -0.28466800       0.34302700
C       -1.42025000       4.91997000      13.60670000       0.04164700       0.03449300       0.12224500
C        4.97095000       1.23001000      13.60670000       0.00904600       0.05331100       0.12224200
C        2.84055000       4.91997000      13.60449000       0.09083100       0.15732300       0.17685900
C        2.84059000       0.00000000      13.60449000       0.08943300      -0.15865200       0.17678300
C        0.71019000       3.68996000      13.61982000      -0.16614900       0.28366700       0.34309100
C        7.10139000       0.00000000      13.60670000       0.04017100      -0.03576000       0.12224100
C        4.97099000       3.68996000      13.60670000       0.00756600      -0.05457800       0.12224400
C        0.00000000       0.00000000      10.39545000      -0.09005500      -0.15598100      -0.17707500
C       -2.13040000       3.68996000      10.39324000      -0.00821700      -0.05187600      -0.12243100
C        4.26080000       0.00000000      10.39324000      -0.04081500      -0.03305000      -0.12242900
C        2.13040000       3.68996000      10.38012000       0.16530600       0.28629900      -0.34207500
C        0.00000000       2.46002000      10.38019000      -0.32601800      -0.00053900      -0.34285200
C       -2.13040000       6.14998000      10.39330000       0.05363300       0.01828100      -0.12185800
C        4.26080000       2.46002000      10.39552000       0.18465500      -0.00052900      -0.17644400
C        2.13040000       6.14998000      10.39330000       0.05361600      -0.01936100      -0.12187700
C        2.13044000       1.23001000      10.38020000       0.16253400      -0.28257700      -0.34282400
C        0.00004000       4.91997000      10.39552000      -0.09279200       0.15966300      -0.17646100
C        6.39124000       1.23001000      10.39330000      -0.01098300       0.05558900      -0.12185700
C        4.26084000       4.91997000      10.39330000      -0.04357400       0.03674800      -0.12187400
C        7.10130000       2.46002000      10.39551000      -0.18212500      -0.00187600      -0.17680000
C       -3.55069000       6.14998000      10.39330000      -0.05105000       0.01691100      -0.12223900
C        2.84050000       2.46002000      10.38019000       0.32870500      -0.00206500      -0.34306300
C        0.71010000       6.14998000      10.39330000      -0.05105000      -0.02073900      -0.12224400
C        0.71015000       1.23001000      10.38019000      -0.16434300      -0.28466800      -0.34302700
C       -1.42025000       4.91997000      10.39330000       0.04164700       0.03449300      -0.12224500
C        4.97095000       1.23001000      10.39330000       0.00904600       0.05331100      -0.12224200
C        2.84055000       4.91997000      10.39551000       0.09083100       0.15732300      -0.17685900
C        2.84059000       0.00000000      10.39551000       0.08943300      -0.15865200      -0.17678300
C        0.71019000       3.68996000      10.38018000      -0.16614900       0.28366700      -0.34309100
C        7.10139000       0.00000000      10.39330000       0.04017100      -0.03576000      -0.12224100
C        4.97099000       3.68996000      10.39330000       0.00756600      -0.05457800      -0.12224400
Li       1.42025000       2.46001000      12.00000000       0.00005100      -0.00006700       0.00000000
49
Lattice="8.52159977 0.0 0.0 -4.260799885 7.379921881 0.0 0.0 0.0 24.0" Properties=species:S:1:pos:R:3:forces:R:3 stress="-0.005455103942058471 5.7858789596937805e-06 -0.0 5.7858789596937805e-06 -0.005448425527293776 -0.0 -0.0 -0.0 -0.003765059308497432" free_energy=-447.30200128 energy=-447.2990954 pbc="T T T"
C        0.00000000       0.00000000      13.62199000      -0.08813000      -0.15264600       0.19095300
C       -2.13040000       3.68996000      13.61882000      -0.00579900      -0.04861800       0.11179000
C        4.26080000       0.00000000      13.61882000      -0.03920300      -0.02932900       0.11177800
C        2.13040000       3.68996000      13.65357000       0.15798800       0.27362900       0.23104800
C        0.00000000       2.46002000      13.65358000      -0.30882000      -0.00569900       0.22910600
C       -2.13040000       6.14998000      13.61870000       0.05100700       0.01959700       0.11293700
C        4.26080000       2.46002000      13.62186000       0.18217100       0.00029300       0.19257300
C        2.13040000       6.14998000      13.61870000       0.05099900      -0.01904000       0.11302200
C        2.13044000       1.23001000      13.65357000       0.14947100      -0.27027400       0.22910400
C        0.00004000       4.91997000      13.62186000      -0.09083500       0.15791700       0.19258500
C        6.39124000       1.23001000      13.61870000      -0.00853100       0.05397200       0.11294700
C        4.26084000       4.91997000      13.61870000      -0.04198800       0.03464300       0.11301900
C        7.10130000       2.46002000      13.62190000      -0.17861700      -0.00128100       0.19212800
C       -3.55069000       6.14998000      13.61874000      -0.04739000       0.01805600       0.11252100
C        2.84050000       2.46002000      13.65361000       0.31680100      -0.00651700       0.22577600
C        0.71010000       6.14998000      13.61875000      -0.04739200      -0.02055900       0.11240500
C        0.71015000       1.23001000      13.65360000      -0.16003700      -0.27720700       0.22743900
C       -1.42025000       4.91997000      13.61875000       0.04109200       0.03256200       0.11249300
C        4.97095000       1.23001000      13.61875000       0.00765200       0.05186600       0.11248000
C        2.84055000       4.91997000      13.62191000       0.09000200       0.15588800       0.19134000
C        2.84059000       0.00000000      13.62190000       0.08819600      -0.15532100       0.19211600
C        0.71019000       3.68996000      13.65361000      -0.16404800       0.27112000       0.22577900
C        7.10139000       0.00000000      13.61874000       0.03933200      -0.03201600       0.11252400
C        4.97099000       3.68996000      13.61874000       0.00589200      -0.05132200       0.11239400
C        0.00000000       0.00000000      10.37801000      -0.08813000      -0.15264600      -0.19095300
C       -2.13040000       3.68996000      10.38118000      -0.00579900      -0.04861800      -0.11179000
C        4.26080000       0.00000000      10.38118000      -0.03920300      -0.02932900      -0.11177800
C        2.13040000       3.68996000      10.34643000       0.15798800       0.27362900      -0.23104800
C        0.00000000       2.46002000      10.34642000      -0.30882000      -0.00569900      -0.22910600
C       -2.13040000       6.14998000      10.38130000       0.05100700       0.01959700      -0.11293700
C        4.26080000       2.46002000      10.37814000       0.18217100       0.00029300      -0.19257300
C        2.13040000       6.14998000      10.38130000       0.05099900      -0.01904000      -0.11302200
C        2.13044000       1.23001000      10.34643000       0.14947100      -0.27027400      -0.22910400
C        0.00004000       4.91997000      10.37814000      -0.09083500       0.15791700      -0.19258500
C        6.39124000       1.23001000      10.38130000      -0.00853100       0.05397200      -0.11294700
C        4.26084000       4.91997000      10.38130000      -0.04198800       0.03464300      -0.11301900
C        7.10130000       2.46002000      10.37810000      -0.17861700      -0.00128100      -0.19212800
C       -3.55069000       6.14998000      10.38126000      -0.04739000       0.01805600      -0.11252100
C        2.84050000       2.46002000      10.34639000       0.31680100      -0.00651700      -0.22577600
C        0.71010000       6.14998000      10.38125000      -0.04739200      -0.02055900      -0.11240500
C        0.71015000       1.23001000      10.34640000      -0.16003700      -0.27720700      -0.22743900
C       -1.42025000       4.91997000      10.38125000       0.04109200       0.03256200      -0.11249300
C        4.97095000       1.23001000      10.38125000       0.00765200       0.05186600      -0.11248000
C        2.84055000       4.91997000      10.37809000       0.09000200       0.15588800      -0.19134000
C        2.84059000       0.00000000      10.37810000       0.08819600      -0.15532100      -0.19211600
C        0.71019000       3.68996000      10.34639000      -0.16404800       0.27112000      -0.22577900
C        7.10139000       0.00000000      10.38126000       0.03933200      -0.03201600      -0.11252400
C        4.97099000       3.68996000      10.38126000       0.00589200      -0.05132200      -0.11239400
Li       1.42026000       2.46001000      12.00000000       0.00038100       0.00057800       0.00000000
49
Lattice="8.52159977 0.0 0.0 -4.260799885 7.379921881 0.0 0.0 0.0 24.0" Properties=species:S:1:pos:R:3:forces:R:3 stress="-0.005205705720406428 3.794837548537021e-06 -0.0 3.794837548537021e-06 -0.005201324181000057 -0.0 -0.0 -0.0 -0.0011459161094756628" free_energy=-447.56330827 energy=-447.56037553 pbc="T T T"
C        0.00000000       0.00000000      13.66505000      -0.08424900      -0.14592200       0.07759400
C       -2.13040000       3.68996000      13.64580000      -0.00029300      -0.04888200       0.09896100
C        4.26080000       0.00000000      13.64580000      -0.04218600      -0.02469500       0.09894900
C        2.13040000       3.68996000      13.71769000       0.14967700       0.25924000       0.11057000
C        0.00000000       2.46002000      13.71750000      -0.29456900      -0.00059700       0.11339200
C       -2.13040000       6.14998000      13.64578000       0.04709200       0.02366600       0.10081700
C        4.26080000       2.46002000      13.66509000       0.17331400      -0.00049000       0.07622500
C        2.13040000       6.14998000      13.64580000       0.04704500      -0.02472600       0.09968600
C        2.13044000       1.23001000      13.71749000       0.14676700      -0.25539400       0.11340800
C        0.00004000       4.91997000      13.66510000      -0.08708300       0.14985000       0.07623500
C        6.39124000       1.23001000      13.64578000      -0.00305000       0.05261600       0.10082100
C        4.26084000       4.91997000      13.64580000      -0.04493500       0.02837900       0.09967800
C        7.10130000       2.46002000      13.66511000      -0.17072100      -0.00113600       0.07825100
C       -3.55069000       6.14998000      13.64580000      -0.04468000       0.02260600       0.09951200
C        2.84050000       2.46002000      13.71709000       0.29674400      -0.00161300       0.12332600
C        0.71010000       6.14998000      13.64579000      -0.04474000      -0.02580000       0.10035900
C        0.71015000       1.23001000      13.71731000      -0.14875900      -0.25766800       0.11911200
C       -1.42025000       4.91997000      13.64580000       0.04288400       0.02585300       0.09992800
C        4.97095000       1.23001000      13.64580000       0.00094800       0.05006500       0.09991700
C        2.84055000       4.91997000      13.66501000       0.08438100       0.14615400       0.08108300
C        2.84059000       0.00000000      13.66510000       0.08437500      -0.14841500       0.07824300
C        0.71019000       3.68996000      13.71710000      -0.14976800       0.25619000       0.12330900
C        7.10139000       0.00000000      13.64580000       0.04191700      -0.02739200       0.09951900
C        4.97099000       3.68996000      13.64579000       0.00002800      -0.05164700       0.10035500
C        0.00000000       0.00000000      10.33495000      -0.08424900      -0.14592200      -0.07759400
C       -2.13040000       3.68996000      10.35420000      -0.00029300      -0.04888200      -0.09896100
C        4.26080000       0.00000000      10.35420000      -0.04218600      -0.02469500      -0.09894900
C        2.13040000       3.68996000      10.28231000       0.14967700       0.25924000      -0.11057000
C        0.00000000       2.46002000      10.28250000      -0.29456900      -0.00059700      -0.11339200
C       -2.13040000       6.14998000      10.35422000       0.04709200       0.02366600      -0.10081700
C        4.26080000       2.46002000      10.33491000       0.17331400      -0.00049000      -0.07622500
C        2.13040000       6.14998000      10.35420000       0.04704500      -0.02472600      -0.09968600
C        2.13044000       1.23001000      10.28251000       0.14676700      -0.25539400      -0.11340800
C        0.00004000       4.91997000      10.33490000      -0.08708300       0.14985000      -0.07623500
C        6.39124000       1.23001000      10.35422000      -0.00305000       0.05261600      -0.10082100
C        4.26084000       4.91997000      10.35420000      -0.04493500       0.02837900      -0.09967800
C        7.10130000       2.46002000      10.33489000      -0.17072100      -0.00113600      -0.07825100
C       -3.55069000       6.14998000      10.35420000      -0.04468000       0.02260600      -0.09951200
C        2.84050000       2.46002000      10.28291000       0.29674400      -0.00161300      -0.12332600
C        0.71010000       6.14998000      10.35421000      -0.04474000      -0.02580000      -0.10035900
C        0.71015000       1.23001000      10.28269000      -0.14875900      -0.25766800      -0.11911200
C       -1.42025000       4.91997000      10.35420000       0.04288400       0.02585300      -0.09992800
C        4.97095000       1.23001000      10.35420000       0.00094800       0.05006500      -0.09991700
C        2.84055000       4.91997000      10.33499000       0.08438100       0.14615400      -0.08108300
C        2.84059000       0.00000000      10.33490000       0.08437500      -0.14841500      -0.07824300
C        0.71019000       3.68996000      10.28290000      -0.14976800       0.25619000      -0.12330900
C        7.10139000       0.00000000      10.35420000       0.04191700      -0.02739200      -0.09951900
C        4.97099000       3.68996000      10.35421000       0.00002800      -0.05164700      -0.10035500
Li       1.42032000       2.46008000      12.00000000      -0.00027900      -0.00048500       0.00000000
49
Lattice="8.52159977 0.0 0.0 -4.260799885 7.379921881 0.0 0.0 0.0 24.0" Properties=species:S:1:pos:R:3:forces:R:3 stress="-0.004679402946384574 3.214377199829878e-06 -0.0 3.214377199829878e-06 -0.004675695489963799 -0.0 -0.0 -0.0 0.0012322736297413835" free_energy=-447.70388031 energy=-447.70092322 pbc="T T T"
C        0.00000000       0.00000000      13.70450000      -0.07486700      -0.12967200       0.08954200
C       -2.13040000       3.68996000      13.67560000       0.00591500      -0.05042100       0.07720900
C        4.26080000       0.00000000      13.67559000      -0.04662200      -0.02009100       0.07720000
C        2.13040000       3.68996000      13.77838000       0.15170000       0.26274600      -0.02309100
C        0.00000000       2.46002000      13.77836000      -0.29881400      -0.00057900      -0.02228200
C       -2.13040000       6.14998000      13.67580000       0.04528900       0.02968000       0.07499500
C        4.26080000       2.46002000      13.70449000       0.15425700      -0.00050300       0.08893000
C        2.13040000       6.14998000      13.67572000       0.04525800      -0.03091700       0.07668100
C        2.13044000       1.23001000      13.77836000       0.14890800      -0.25906800      -0.02227000
C        0.00004000       4.91997000      13.70450000      -0.07756600       0.13334000       0.08893000
C        6.39124000       1.23001000      13.67580000       0.00306100       0.05406200       0.07499800
C        4.26084000       4.91997000      13.67572000      -0.04940400       0.02373700       0.07667600
C        7.10130000       2.46002000      13.70469000      -0.15271800      -0.00125800       0.08455300
C       -3.55069000       6.14998000      13.67570000      -0.04318200       0.02925600       0.07541300
C        2.84050000       2.46002000      13.77862000       0.30161900      -0.00120700      -0.02978500
C        0.71010000       6.14998000      13.67576000      -0.04319500      -0.03119300       0.07378000
C        0.71015000       1.23001000      13.77858000      -0.15152600      -0.26245700      -0.02936400
C       -1.42025000       4.91997000      13.67574000       0.04672700       0.02067000       0.07428400
C        4.97095000       1.23001000      13.67573000      -0.00546000       0.05080300       0.07427400
C        2.84055000       4.91997000      13.70479000       0.07580900       0.13130600       0.08385700
C        2.84059000       0.00000000      13.70468000       0.07526800      -0.13288600       0.08455200
C        0.71019000       3.68996000      13.77863000      -0.15185100       0.26060800      -0.02979700
C        7.10139000       0.00000000      13.67570000       0.04692700      -0.02276700       0.07541900
C        4.97099000       3.68996000      13.67575000      -0.00541500      -0.05300500       0.07377600
C        0.00000000       0.00000000      10.29550000      -0.07486700      -0.12967200      -0.08954200
C       -2.13040000       3.68996000      10.32440000       0.00591500      -0.05042100      -0.07720900
C        4.26080000       0.00000000      10.32441000      -0.04662200      -0.02009100      -0.07720000
C        2.13040000       3.68996000      10.22162000       0.15170000       0.26274600       0.02309100
C        0.00000000       2.46002000      10.22164000      -0.29881400      -0.00057900       0.02228200
C       -2.13040000       6.14998000      10.32420000       0.04528900       0.02968000      -0.07499500
C        4.26080000       2.46002000      10.29551000       0.15425700      -0.00050300      -0.08893000
C        2.13040000       6.14998000      10.32428000       0.04525800      -0.03091700      -0.07668100
C        2.13044000       1.23001000      10.22164000       0.14890800      -0.25906800       0.02227000
C        0.00004000       4.91997000      10.29550000      -0.07756600       0.13334000      -0.08893000
C        6.39124000       1.23001000      10.32420000       0.00306100       0.05406200      -0.07499800
C        4.26084000       4.91997000      10.32428000      -0.04940400       0.02373700      -0.07667600
C        7.10130000       2.46002000      10.29531000      -0.15271800      -0.00125800      -0.08455300
C       -3.55069000       6.14998000      10.32430000      -0.04318200       0.02925600      -0.07541300
C        2.84050000       2.46002000      10.22138000       0.30161900      -0.00120700       0.02978500
C        0.71010000       6.14998000      10.32424000      -0.04319500      -0.03119300      -0.07378000
C        0.71015000       1.23001000      10.22142000      -0.15152600      -0.26245700       0.02936400
C       -1.42025000       4.91997000      10.32426000       0.04672700       0.02067000      -0.07428400
C        4.97095000       1.23001000      10.32427000      -0.00546000       0.05080300      -0.07427400
C        2.84055000       4.91997000      10.29521000       0.07580900       0.13130600      -0.08385700
C        2.84059000       0.00000000      10.29532000       0.07526800      -0.13288600      -0.08455200
C        0.71019000       3.68996000      10.22137000      -0.15185100       0.26060800       0.02979700
C        7.10139000       0.00000000      10.32430000       0.04692700      -0.02276700      -0.07541900
C        4.97099000       3.68996000      10.32425000      -0.00541500      -0.05300500      -0.07377600
Li       1.42033000       2.46008000      12.00000000      -0.00023300      -0.00037100       0.00000000
49
Lattice="8.52159977 0.0 0.0 -4.260799885 7.379921881 0.0 0.0 0.0 24.0" Properties=species:S:1:pos:R:3:forces:R:3 stress="-0.004743241101724108 3.189411163326345e-06 -0.0 3.189411163326345e-06 -0.004739558611339837 -0.0 -0.0 -0.0 0.0012256638715770732" free_energy=-447.71192059 energy=-447.70896505 pbc="T T T"
C        0.00000000       0.00000000      13.70726000      -0.07839800      -0.13578700       0.06448900
C       -2.13040000       3.68996000      13.67820000       0.00469700      -0.05016100       0.08360600
C        4.26080000       0.00000000      13.67820000      -0.04578900      -0.02101500       0.08360100
C        2.13040000       3.68996000      13.77516000       0.14827700       0.25681800      -0.01568300
C        0.00000000       2.46002000      13.77518000      -0.29198200      -0.00057700      -0.01484900
C       -2.13040000       6.14998000      13.67830000       0.04568800       0.02857700       0.08283100
C        4.26080000       2.46002000      13.70722000       0.16133100      -0.00050700       0.06321700
C        2.13040000       6.14998000      13.67830000       0.04565700      -0.02971700       0.08327600
C        2.13044000       1.23001000      13.77517000       0.14549400      -0.25315200      -0.01484400
C        0.00004000       4.91997000      13.70723000      -0.08110700       0.13946600       0.06321700
C        6.39124000       1.23001000      13.67830000       0.00190600       0.05385500       0.08283100
C        4.26084000       4.91997000      13.67830000      -0.04856400       0.02468300       0.08327200
C        7.10130000       2.46002000      13.70721000      -0.15886400      -0.00137300       0.06480100
C       -3.55069000       6.14998000      13.67822000      -0.04364400       0.02822600       0.08510200
C        2.84050000       2.46002000      13.77507000       0.29415100      -0.00128900      -0.01279700
C        0.71010000       6.14998000      13.67820000      -0.04366400      -0.03020200       0.08473200
C        0.71015000       1.23001000      13.77506000      -0.14769500      -0.25582100      -0.01246400
C       -1.42025000       4.91997000      13.67820000       0.04610800       0.02155200       0.08462400
C        4.97095000       1.23001000      13.67820000      -0.00438700       0.05070700       0.08461900
C        2.84055000       4.91997000      13.70728000       0.07891300       0.13668200       0.06460700
C        2.84059000       0.00000000      13.70720000       0.07824100      -0.13826400       0.06480200
C        0.71019000       3.68996000      13.77508000      -0.14818900       0.25409800      -0.01280300