49
Lattice="8.52159977 0.0 0.0 -4.260799885 7.379921881 0.0 0.0 0.0 24.0" Properties=species:S:1:pos:R:3:forces:R:3 stress="-0.005640120997077028 3.1145130538157455e-06 -0.0 3.1145130538157455e-06 -0.005636525887820519 -0.0 -0.0 -0.0 -0.009368361643240874" free_energy=-446.45264046 energy=-446.44857477 pbc="T T T"
C        0.00000000       0.00000000      13.55000000      -0.09121800      -0.15799400       0.16078300
C       -2.13040000       3.68996000      13.55000000      -0.01420500      -0.06341100       0.20828300
C        4.26080000       0.00000000      13.55000000      -0.04780700      -0.04400200       0.20828400
C        2.13040000       3.68996000      13.55000000       0.18909500       0.32750100       0.53355100
C        0.00000000       2.46002000      13.55000000      -0.37354900      -0.00055100       0.53430300
C       -2.13040000       6.14998000      13.55000000       0.06659000       0.01887100       0.20908700
C        4.26080000       2.46002000      13.55000000       0.18698700      -0.00052100       0.16160000
C        2.13040000       6.14998000      13.55000000       0.06658900      -0.01995100       0.20908700
C        2.13044000       1.23001000      13.55000000       0.18628100      -0.32372700       0.53423300
C        0.00004000       4.91997000      13.55000000      -0.09395100       0.16168900       0.16160600
C        6.39124000       1.23001000      13.55000000      -0.01694800       0.06710600       0.20908700
C        4.26084000       4.91997000      13.55000000      -0.05057400       0.04768500       0.20908800
C        7.10130000       2.46002000      13.55000000      -0.18491500      -0.00106300       0.16141500
C       -3.55069000       6.14998000      13.55000000      -0.06450500       0.01835400       0.20890800
C        2.84050000       2.46002000      13.55000000       0.37562400      -0.00102800       0.53411800
C        0.71010000       6.14998000      13.55000000      -0.06451400      -0.02047100       0.20891000
C        0.71015000       1.23001000      13.55000000      -0.18874300      -0.32693400       0.53407000
C       -1.42025000       4.91997000      13.55000000       0.04815600       0.04457900       0.20890400
C        4.97095000       1.23001000      13.55000000       0.01452500       0.06398600       0.20890500
C        2.84055000       4.91997000      13.55000000       0.09155500       0.15857800       0.16140700
C        2.84059000       0.00000000      13.55000000       0.09153000      -0.16065800       0.16141000
C        0.71019000       3.68996000      13.55000000      -0.18871800       0.32483700       0.53418900
C        7.10139000       0.00000000      13.55000000       0.04814700      -0.04669300       0.20890700
C        4.97099000       3.68996000      13.55000000       0.01453300      -0.06610500       0.20891000
C        0.00000000       0.00000000      10.45000000      -0.09121800      -0.15799400      -0.16078300
C       -2.13040000       3.68996000      10.45000000      -0.01420500      -0.06341100      -0.20828300
C        4.26080000       0.00000000      10.45000000      -0.04780700      -0.04400200      -0.20828400
C        2.13040000       3.68996000      10.45000000       0.18909500       0.32750100      -0.53355100
C        0.00000000       2.46002000      10.45000000      -0.37354900      -0.00055100      -0.53430300
C       -2.13040000       6.14998000      10.45000000       0.06659000       0.01887100      -0.20908700
C        4.26080000       2.46002000      10.45000000       0.18698700      -0.00052100      -0.16160000
C        2.13040000       6.14998000      10.45000000       0.06658900      -0.01995100      -0.20908700
C        2.13044000       1.23001000      10.45000000       0.18628100      -0.32372700      -0.53423300
C        0.00004000       4.91997000      10.45000000      -0.09395100       0.16168900      -0.16160600
C        6.39124000       1.23001000      10.45000000      -0.01694800       0.06710600      -0.20908700
C        4.26084000       4.91997000      10.45000000      -0.05057400       0.04768500      -0.20908800
C        7.10130000       2.46002000      10.45000000      -0.18491500      -0.00106300      -0.16141500
C       -3.55069000       6.14998000      10.45000000      -0.06450500       0.01835400      -0.20890800
C        2.84050000       2.46002000      10.45000000       0.37562400      -0.00102800      -0.53411800
C        0.71010000       6.14998000      10.45000000      -0.06451400      -0.02047100      -0.20891000
C        0.71015000       1.23001000      10.45000000      -0.18874300      -0.32693400      -0.53407000
C       -1.42025000       4.91997000      10.45000000       0.04815600       0.04457900      -0.20890400
C        4.97095000       1.23001000      10.45000000       0.01452500       0.06398600      -0.20890500
C        2.84055000       4.91997000      10.45000000       0.09155500       0.15857800      -0.16140700
C        2.84059000       0.00000000      10.45000000       0.09153000      -0.16065800      -0.16141000
C        0.71019000       3.68996000      10.45000000      -0.18871800       0.32483700      -0.53418900
C        7.10139000       0.00000000      10.45000000       0.04814700      -0.04669300      -0.20890700
C        4.97099000       3.68996000      10.45000000       0.01453300      -0.06610500      -0.20891000
Li       1.42025000       2.46002000      12.00000000       0.00006300      -0.00015600      -0.00000000
49
Lattice="8.52159977 0.0 0.0 -4.260799885 7.379921881 0.0 0.0 0.0 24.0" Properties=species:S:1:pos:R:3:forces:R:3 stress="-0.005153826296552086 3.0833055081863293e-06 -0.0 3.0833055081863293e-06 -0.005150268636350333 -0.0 -0.0 -0.0 -0.008081593397321405" free_energy=-446.66429611 energy=-446.66029829 pbc="T T T"
C        0.00000000       0.00000000      13.55776000      -0.09287900      -0.16087200       0.25183400
C       -2.13040000       3.68996000      13.56005000      -0.01109000      -0.05977500       0.17450300
C        4.26080000       0.00000000      13.56005000      -0.04621900      -0.03948700       0.17450000
C        2.13040000       3.68996000      13.57574000       0.17911200       0.31021200       0.39541200
C        0.00000000       2.46002000      13.57578000      -0.35357100      -0.00053500       0.39389000
C       -2.13040000       6.14998000      13.56009000       0.06188000       0.01975700       0.17409600
C        4.26080000       2.46002000      13.55780000       0.19031300      -0.00051800       0.25158500
C        2.13040000       6.14998000      13.56009000       0.06187900      -0.02083300       0.17410600
C        2.13044000       1.23001000      13.57577000       0.17631200      -0.30643300       0.39386100
C        0.00004000       4.91997000      13.55780000      -0.09561100       0.16456600       0.25160500
C        6.39124000       1.23001000      13.56009000      -0.01382800       0.06346900       0.17409600
C        4.26084000       4.91997000      13.56009000      -0.04898100       0.04316700       0.17410300
C        7.10130000       2.46002000      13.55779000      -0.18827300      -0.00101300       0.25154500
C       -3.55069000       6.14998000      13.56008000      -0.05983000       0.01928800       0.17410400
C        2.84050000       2.46002000      13.57577000       0.35568900      -0.00109300       0.39417700
C        0.71010000       6.14998000      13.56008000      -0.05983900      -0.02130000       0.17410000
C        0.71015000       1.23001000      13.57576000      -0.17871800      -0.30956700       0.39406700
C       -1.42025000       4.91997000      13.56008000       0.04653400       0.04000900       0.17410500
C        4.97095000       1.23001000      13.56008000       0.01138000       0.06030000       0.17410200
C        2.84055000       4.91997000      13.55779000       0.09319200       0.16141200       0.25161700
C        2.84059000       0.00000000      13.55779000       0.09325300      -0.16354500       0.25152600
C        0.71019000       3.68996000      13.57577000      -0.17880100       0.30752600       0.39420700
C        7.10139000       0.00000000      13.56008000       0.04662000      -0.04217600       0.17410800
C        4.97099000       3.68996000      13.56008000       0.01147600      -0.06247200       0.17410000
C        0.00000000       0.00000000      10.44224000      -0.09287900      -0.16087200      -0.25183400
C       -2.13040000       3.68996000      10.43995000      -0.01109000      -0.05977500      -0.17450300
C        4.26080000       0.00000000      10.43995000      -0.04621900      -0.03948700      -0.17450000
C        2.13040000       3.68996000      10.42426000       0.17911200       0.31021200      -0.39541200
C        0.00000000       2.46002000      10.42422000      -0.35357100      -0.00053500      -0.39389000
C       -2.13040000       6.14998000      10.43991000       0.06188000       0.01975700      -0.17409600
C        4.26080000       2.46002000      10.44220000       0.19031300      -0.00051800      -0.25158500
C        2.13040000       6.14998000      10.43991000       0.06187900      -0.02083300      -0.17410600
C        2.13044000       1.23001000      10.42423000       0.17631200      -0.30643300      -0.39386100
C        0.00004000       4.91997000      10.44220000      -0.09561100       0.16456600      -0.25160500
C        6.39124000       1.23001000      10.43991000      -0.01382800       0.06346900      -0.17409600
C        4.26084000       4.91997000      10.43991000      -0.04898100       0.04316700      -0.17410300
C        7.10130000       2.46002000      10.44221000      -0.18827300      -0.00101300      -0.25154500
C       -3.55069000       6.14998000      10.43992000      -0.05983000       0.01928800      -0.17410400
C        2.84050000       2.46002000      10.42423000       0.35568900      -0.00109300      -0.39417700
C        0.71010000       6.14998000      10.43992000      -0.05983900      -0.02130000      -0.17410000
C        0.71015000       1.23001000      10.42424000      -0.17871800      -0.30956700      -0.39406700
C       -1.42025000       4.91997000      10.43992000       0.04653400       0.04000900      -0.17410500
C        4.97095000       1.23001000      10.43992000       0.01138000       0.06030000      -0.17410200
C        2.84055000       4.91997000      10.44221000       0.09319200       0.16141200      -0.25161700
C        2.84059000       0.00000000      10.44221000       0.09325300      -0.16354500      -0.25152600
C        0.71019000       3.68996000      10.42423000      -0.17880100       0.30752600      -0.39420700
C        7.10139000       0.00000000      10.43992000       0.04662000      -0.04217600      -0.17410800
C        4.97099000       3.68996000      10.43992000       0.01147600      -0.06247200      -0.17410000
Li       1.42026000       2.46002000      12.00000000       0.00000200      -0.00017200      -0.00000000
49
Lattice="8.52159977 0.0 0.0 -4.260799885 7.379921881 0.0 0.0 0.0 24.0" Properties=species:S:1:pos:R:3:forces:R:3 stress="-0.0052088888900606286 3.3267243640957763e-06 -0.0 3.3267243640957763e-06 -0.005205044120439084 -0.0 -0.0 -0.0 -0.0059906940816596395" free_energy=-447.01461312 energy=-447.01169432 pbc="T T T"
C        0.00000000       0.00000000      13.58787000      -0.08843900      -0.15318100       0.19371200
C       -2.13040000       3.68996000      13.58091000      -0.00366700      -0.05031300       0.14103800
C        4.26080000       0.00000000      13.58091000      -0.04173800      -0.02833100       0.14102100
C        2.13040000       3.68996000      13.62302000       0.16905100       0.29279100       0.31133400
C        0.00000000       2.46002000      13.62287000      -0.33351300      -0.00056000       0.31355100
C       -2.13040000       6.14998000      13.58090000       0.05000300       0.02144100       0.13990000
C        4.26080000       2.46002000      13.58788000       0.18140400      -0.00051200       0.19209400
C        2.13040000       6.14998000      13.58090000       0.04996700      -0.02251900       0.13990800
C        2.13044000       1.23001000      13.62286000       0.16626800      -0.28909100       0.31355700
C        0.00004000       4.91997000      13.58788000      -0.09114800       0.15684800       0.19210500
C        6.39124000       1.23001000      13.58090000      -0.00643200       0.05402400       0.13991400
C        4.26084000       4.91997000      13.58090000      -0.04448500       0.03201100       0.13990500
C        7.10130000       2.46002000      13.58786000      -0.17913300      -0.00142700       0.19255400
C       -3.55069000       6.14998000      13.58089000      -0.04781900       0.02076500       0.14032500
C        2.84050000       2.46002000      13.62290000       0.33618900      -0.00205500       0.31379000
C        0.71010000       6.14998000      13.58089000      -0.04781500      -0.02321800       0.14061100
C        0.71015000       1.23001000      13.62288000      -0.16809600      -0.29116400       0.31307700
C       -1.42025000       4.91997000      13.58089000       0.04217500       0.02909100       0.14047600
C        4.97095000       1.23001000      13.58089000       0.00410600       0.05106800       0.14045900
C        2.84055000       4.91997000      13.58787000       0.08892000       0.15401500       0.19343000
C        2.84059000       0.00000000      13.58786000       0.08832900      -0.15584300       0.19254400
C        0.71019000       3.68996000      13.62290000      -0.16987800       0.29014000       0.31378400
C        7.10139000       0.00000000      13.58090000       0.04189300      -0.03103200       0.14032800
C        4.97099000       3.68996000      13.58089000       0.00380100      -0.05301800       0.14059700
C        0.00000000       0.00000000      10.41213000      -0.08843900      -0.15318100      -0.19371200
C       -2.13040000       3.68996000      10.41909000      -0.00366700      -0.05031300      -0.14103800
C        4.26080000       0.00000000      10.41909000      -0.04173800      -0.02833100      -0.14102100
C        2.13040000       3.68996000      10.37698000       0.16905100       0.29279100      -0.31133400
C        0.00000000       2.46002000      10.37713000      -0.33351300      -0.00056000      -0.31355100
C       -2.13040000       6.14998000      10.41910000       0.05000300       0.02144100      -0.13990000
C        4.26080000       2.46002000      10.41212000       0.18140400      -0.00051200      -0.19209400
C        2.13040000       6.14998000      10.41910000       0.04996700      -0.02251900      -0.13990800
C        2.13044000       1.23001000      10.37714000       0.16626800      -0.28909100      -0.31355700
C        0.00004000       4.91997000      10.41212000      -0.09114800       0.15684800      -0.19210500
C        6.39124000       1.23001000      10.41910000      -0.00643200       0.05402400      -0.13991400
C        4.26084000       4.91997000      10.41910000      -0.04448500       0.03201100      -0.13990500
C        7.10130000       2.46002000      10.41214000      -0.17913300      -0.00142700      -0.19255400
C       -3.55069000       6.14998000      10.41911000      -0.04781900       0.02076500      -0.14032500
C        2.84050000       2.46002000      10.37710000       0.33618900      -0.00205500      -0.31379000
C        0.71010000       6.14998000      10.41911000      -0.04781500      -0.02321800      -0.14061100
C        0.71015000       1.23001000      10.37712000      -0.16809600      -0.29116400      -0.31307700
C       -1.42025000       4.91997000      10.41911000       0.04217500       0.02909100      -0.14047600
C        4.97095000       1.23001000      10.41911000       0.00410600       0.05106800      -0.14045900
C        2.84055000       4.91997000      10.41213000       0.08892000       0.15401500      -0.19343000
C        2.84059000       0.00000000      10.41214000       0.08832900      -0.15584300      -0.19254400
C        0.71019000       3.68996000      10.37710000      -0.16987800       0.29014000      -0.31378400
C        7.10139000       0.00000000      10.41910000       0.04189300      -0.03103200      -0.14032800
C        4.97099000       3.68996000      10.41911000       0.00380100      -0.05301800      -0.14059700
Li       1.42026000       2.46000000      12.00000000       0.00011800       0.00013900      -0.00000000
49
Lattice="8.52159977 0.0 0.0 -4.260799885 7.379921881 0.0 0.0 0.0 24.0" Properties=species:S:1:pos:R:3:forces:R:3 stress="-0.004523889505004067 2.877335707032182e-06 -0.0 2.877335707032182e-06 -0.004520569022149096 -0.0 -0.0 -0.0 0.0010153000479983037" free_energy=-447.64712132 energy=-447.64414278 pbc="T T T"
C        0.00000000       0.00000000      13.69961000      -0.06033100      -0.10449200       0.09978200
C       -2.13040000       3.68996000      13.65990000       0.01860300      -0.05649800       0.10901000
C        4.26080000       0.00000000      13.65990000      -0.05822800      -0.01214400       0.10899400
C        2.13040000       3.68996000      13.80011000       0.17439900       0.30206400      -0.07592500
C        0.00000000       2.46002000      13.80006000      -0.34433300      -0.00063800      -0.07825400
C       -2.13040000       6.14998000      13.65952000       0.04422400       0.04421500       0.11384200
C        4.26080000       2.46002000      13.69918000       0.12384700      -0.00056200       0.10454900
C        2.13040000       6.14998000      13.65953000       0.04426600      -0.04553000       0.11563200
C        2.13044000       1.23001000      13.80005000       0.17161500      -0.29851900      -0.07821600
C        0.00004000       4.91997000      13.69919000      -0.06241000       0.10696900       0.10455900
C        6.39124000       1.23001000      13.65952000       0.01618300       0.06040700       0.11384500
C        4.26084000       4.91997000      13.65952000      -0.06156300       0.01557300       0.11562000
C        7.10130000       2.46002000      13.69926000      -0.12209400      -0.00134400       0.10386200
C       -3.55069000       6.14998000      13.65961000      -0.04208200       0.04373500       0.11369600
C        2.84050000       2.46002000      13.80022000       0.34683100      -0.00099900      -0.08103300
C        0.71010000       6.14998000      13.65968000      -0.04201600      -0.04571300       0.11244000
C        0.71015000       1.23001000      13.80001000      -0.17392800      -0.30125700      -0.07646400
C       -1.42025000       4.91997000      13.65965000       0.05895900       0.01277000       0.11303100
C        4.97095000       1.23001000      13.65964000      -0.01841400       0.05744600       0.11301500
C        2.84055000       4.91997000      13.69949000       0.06057300       0.10492100       0.09929100
C        2.84059000       0.00000000      13.69925000       0.05988300      -0.10641300       0.10385200
C        0.71019000       3.68996000      13.80023000      -0.17427900       0.29986600      -0.08106900
C        7.10139000       0.00000000      13.65961000       0.05891600      -0.01457400       0.11370800
C        4.97099000       3.68996000      13.65967000      -0.01857700      -0.05924300       0.11243700
C        0.00000000       0.00000000      10.30039000      -0.06033100      -0.10449200      -0.09978200
C       -2.13040000       3.68996000      10.34010000       0.01860300      -0.05649800      -0.10901000
C        4.26080000       0.00000000      10.34010000      -0.05822800      -0.01214400      -0.10899400
C        2.13040000       3.68996000      10.19989000       0.17439900       0.30206400       0.07592500
C        0.00000000       2.46002000      10.19994000      -0.34433300      -0.00063800       0.07825400
C       -2.13040000       6.14998000      10.34048000       0.04422400       0.04421500      -0.11384200
C        4.26080000       2.46002000      10.30082000       0.12384700      -0.00056200      -0.10454900
C        2.13040000       6.14998000      10.34047000       0.04426600      -0.04553000      -0.11563200
C        2.13044000       1.23001000      10.19995000       0.17161500      -0.29851900       0.07821600
C        0.00004000       4.91997000      10.30081000      -0.06241000       0.10696900      -0.10455900
C        6.39124000       1.23001000      10.34048000       0.01618300       0.06040700      -0.11384500
C        4.26084000       4.91997000      10.34048000      -0.06156300       0.01557300      -0.11562000
C        7.10130000       2.46002000      10.30074000      -0.12209400      -0.00134400      -0.10386200
C       -3.55069000       6.14998000      10.34039000      -0.04208200       0.04373500      -0.11369600
C        2.84050000       2.46002000      10.19978000       0.34683100      -0.00099900       0.08103300
C        0.71010000       6.14998000      10.34032000      -0.04201600      -0.04571300      -0.11244000
C        0.71015000       1.23001000      10.19999000      -0.17392800      -0.30125700       0.07646400
C       -1.42025000       4.91997000      10.34035000       0.05895900       0.01277000      -0.11303100
C        4.97095000       1.23001000      10.34036000      -0.01841400       0.05744600      -0.11301500
C        2.84055000       4.91997000      10.30051000       0.06057300       0.10492100      -0.09929100
C        2.84059000       0.00000000      10.30075000       0.05988300      -0.10641300      -0.10385200
C        0.71019000       3.68996000      10.19977000      -0.17427900       0.29986600       0.08106900
C        7.10139000       0.00000000      10.34039000       0.05891600      -0.01457400      -0.11370800
C        4.97099000       3.68996000      10.34033000      -0.01857700      -0.05924300      -0.11243700
Li       1.42028000       2.45998000      12.00000000      -0.00008800      -0.00008200      -0.00000000
49
Lattice="8.52159977 0.0 0.0 -4.260799885 7.379921881 0.0 0.0 0.0 24.0" Properties=species:S:1:pos:R:3:forces:R:3 stress="-0.004610646481853844 3.4890036013687416e-06 -0.0 3.4890036013687416e-06 -0.004606614466958524 -0.0 -0.0 -0.0 0.000761008483191568" free_energy=-447.65079244 energy=-447.64782462 pbc="T T T"
C        0.00000000       0.00000000      13.69435000      -0.06945300      -0.12029300       0.06270800
C       -2.13040000       3.68996000      13.65788000       0.01382900      -0.05424700       0.10972800
C        4.26080000       0.00000000      13.65788000      -0.05389200      -0.01515100       0.10971700
C        2.13040000       3.68996000      13.78156000       0.16410500       0.28423300      -0.04646200
C        0.00000000       2.46002000      13.78142000      -0.32341500      -0.00059900      -0.04338600
C       -2.13040000       6.14998000      13.65774000       0.04469300       0.03869600       0.11251300
C        4.26080000       2.46002000      13.69416000       0.14309700      -0.00050400       0.06323400
C        2.13040000       6.14998000      13.65783000       0.04463000      -0.03980600       0.11152600
C        2.13044000       1.23001000      13.78140000       0.16119200      -0.28038700      -0.04336500
C        0.00004000       4.91997000      13.69417000      -0.07198700       0.12367300       0.06323200
C        6.39124000       1.23001000      13.65775000       0.01116800       0.05805400       0.11251700
C        4.26084000       4.91997000      13.65783000      -0.05678800       0.01875000       0.11151900
C        7.10130000       2.46002000      13.69421000      -0.14109800      -0.00117000       0.06283300
C       -3.55069000       6.14998000      13.65782000      -0.04245800       0.03804600       0.11170500
C        2.84050000       2.46002000      13.78144000       0.32565900      -0.00110700      -0.04374400
C        0.71010000       6.14998000      13.65783000      -0.04247500      -0.04040800       0.11147300
C        0.71015000       1.23001000      13.78145000      -0.16351700      -0.28322300      -0.04382200
C       -1.42025000       4.91997000      13.65783000       0.05441900       0.01591300       0.11096100
C        4.97095000       1.23001000      13.65782000      -0.01342400       0.05508600       0.11095000
C        2.84055000       4.91997000      13.69422000       0.06961100       0.12057200       0.06409500
C        2.84059000       0.00000000      13.69420000       0.06953500      -0.12278000       0.06283600
C        0.71019000       3.68996000      13.78145000      -0.16378500       0.28147400      -0.04376400
C        7.10139000       0.00000000      13.65782000       0.05417800      -0.01774400       0.11171200
C        4.97099000       3.68996000      13.65782000      -0.01375500      -0.05698800       0.11146900
C        0.00000000       0.00000000      10.30565000      -0.06945300      -0.12029300      -0.06270800
C       -2.13040000       3.68996000      10.34212000       0.01382900      -0.05424700      -0.10972800
C        4.26080000       0.00000000      10.34212000      -0.05389200      -0.01515100      -0.10971700
C        2.13040000       3.68996000      10.21844000       0.16410500       0.28423300       0.04646200
C        0.00000000       2.46002000      10.21858000      -0.32341500      -0.00059900       0.04338600
C       -2.13040000       6.14998000      10.34226000       0.04469300       0.03869600      -0.11251300
C        4.26080000       2.46002000      10.30584000       0.14309700      -0.00050400      -0.06323400
C        2.13040000       6.14998000      10.34217000       0.04463000      -0.03980600      -0.11152600
C        2.13044000       1.23001000      10.21860000       0.16119200      -0.28038700       0.04336500
C        0.00004000       4.91997000      10.30583000      -0.07198700       0.12367300      -0.06323200
C        6.39124000       1.23001000      10.34225000       0.01116800       0.05805400      -0.11251700
C        4.26084000       4.91997000      10.34217000      -0.05678800       0.01875000      -0.11151900
C        7.10130000       2.46002000      10.30579000      -0.14109800      -0.00117000      -0.06283300
C       -3.55069000       6.14998000      10.34218000      -0.04245800       0.03804600      -0.11170500
C        2.84050000       2.46002000      10.21856000       0.32565900      -0.00110700       0.04374400
C        0.71010000       6.14998000      10.34217000      -0.04247500      -0.04040800      -0.11147300
C        0.71015000       1.23001000      10.21855000      -0.16351700      -0.28322300       0.04382200
C       -1.42025000       4.91997000      10.34217000       0.05441900       0.01591300      -0.11096100
C        4.97095000       1.23001000      10.34218000      -0.01342400       0.05508600      -0.11095000
C        2.84055000       4.91997000      10.30578000       0.06961100       0.12057200      -0.06409500
C        2.84059000       0.00000000      10.30580000       0.06953500      -0.12278000      -0.06283600
C        0.71019000       3.68996000      10.21855000      -0.16378500       0.28147400       0.04376400
C        7.10139000       0.00000000      10.34218000       0.05417800      -0.01774400      -0.11171200
C        4.97099000       3.68996000      10.34218000      -0.01375500      -0.05698800      -0.11146900
Li       1.42028000       2.45998000      12.00000000      -0.00013500      -0.00017700      -0.00000000
49
Lattice="8.52159977 0.0 0.0 -4.260799885 7.379921881 0.0 0.0 0.0 24.0" Properties=species:S:1:pos:R:3:forces:R:3 stress="-0.0051322493995039084 2.708814960633334e-06 -0.0 2.708814960633334e-06 -0.005129128644940966 -0.0 -0.0 -0.0 8.891653900733291e-05" free_energy=-447.65116705 energy=-447.64821971 pbc="T T T"
C        0.00000000       0.00000000      13.68624000      -0.07904200      -0.13690400       0.07683800
C       -2.13040000       3.68996000      13.66004000       0.00412700      -0.04988200       0.09797300
C        4.26080000       0.00000000      13.66004000      -0.04526300      -0.02136900       0.09798000
C        2.13040000       3.68996000      13.75226000       0.15116200       0.26181500       0.04508900
C        0.00000000       2.46002000      13.75251000      -0.29807000      -0.00051600       0.04233100
C       -2.13040000       6.14998000      13.66026000       0.04573600       0.02789500       0.09698100
C        4.26080000       2.46002000      13.68613000       0.16248500      -0.00054200       0.07689500
C        2.13040000       6.14998000      13.66021000       0.04574100      -0.02909000       0.09914300
C        2.13044000       1.23001000      13.75251000       0.14859200      -0.25839500       0.04233100
C        0.00004000       4.91997000      13.68614000      -0.08171400       0.14044800       0.07689600
C        6.39124000       1.23001000      13.66027000       0.00129100       0.05355600       0.09697300
C        4.26084000       4.91997000      13.66021000      -0.04806300       0.02506900       0.09914200
C        7.10130000       2.46002000      13.68612000      -0.16041200      -0.00094500       0.07706700
C       -3.55069000       6.14998000      13.66023000      -0.04356700       0.02731800       0.09832100
C        2.84050000       2.46002000      13.75250000       0.30067800      -0.00188000       0.04108800
C        0.71010000       6.14998000      13.66021000      -0.04356900      -0.02969100       0.09674800
C        0.71015000       1.23001000      13.75248000      -0.15041400      -0.26053100       0.04331100
C       -1.42025000       4.91997000      13.66014000       0.04563100       0.02213500       0.09786800
C        4.97095000       1.23001000      13.66014000      -0.00364400       0.05058600       0.09787300
C        2.84055000       4.91997000      13.68630000       0.07952800       0.13774600       0.07418200
C        2.84059000       0.00000000      13.68611000       0.07938600      -0.13939100       0.07706500
C        0.71019000       3.68996000      13.75250000      -0.15196300       0.25945400       0.04108800