49
Lattice="8.52159977 0.0 0.0 -4.260799885 7.379921881 0.0 0.0 0.0 24.0" Properties=species:S:1:pos:R:3:forces:R:3 stress="-0.005925102062255732 3.145720599445162e-06 -0.0 3.145720599445162e-06 -0.0059214757454535945 -0.0 -0.0 -0.0 -0.0029238349500200125" free_energy=-447.40133677 energy=-447.39843437 pbc="T T T"
C        0.00000000       0.00000000      13.65000000      -0.08972700      -0.15541300       0.03558500
C       -2.13040000       3.68996000      13.65000000      -0.01043900      -0.05191300       0.07998500
C        4.26080000       0.00000000      13.65000000      -0.03973600      -0.03499200       0.07998500
C        2.13040000       3.68996000      13.65000000       0.15409400       0.26687900       0.29968000
C        0.00000000       2.46002000      13.65000000      -0.30353400      -0.00054600       0.30102800
C       -2.13040000       6.14998000      13.65000000       0.05477800       0.01638300       0.08134100
C        4.26080000       2.46002000      13.65000000       0.18402600      -0.00052100       0.03696000
C        2.13040000       6.14998000      13.65000000       0.05477000      -0.01745900       0.08134100
C        2.13044000       1.23001000      13.65000000       0.15128600      -0.26310700       0.30097700
C        0.00004000       4.91997000      13.65000000      -0.09247100       0.15912500       0.03696300
C        6.39124000       1.23001000      13.65000000      -0.01319900       0.05563200       0.08134100
C        4.26084000       4.91997000      13.65000000      -0.04250500       0.03869600       0.08134200
C        7.10130000       2.46002000      13.65000000      -0.18170500      -0.00149200       0.03671400
C       -3.55069000       6.14998000      13.65000000      -0.05244100       0.01543800       0.08110000
C        2.84050000       2.46002000      13.65000000       0.30587600      -0.00147700       0.30078800
C        0.71010000       6.14998000      13.65000000      -0.05244300      -0.01840800       0.08110100
C        0.71015000       1.23001000      13.65000000      -0.15347500      -0.26584800       0.30076200
C       -1.42025000       4.91997000      13.65000000       0.04033100       0.03601200       0.08110000
C        4.97095000       1.23001000      13.65000000       0.01101900       0.05292800       0.08110000
C        2.84055000       4.91997000      13.65000000       0.09031800       0.15643100       0.03671100
C        2.84059000       0.00000000      13.65000000       0.08955400      -0.15809300       0.03671000
C        0.71019000       3.68996000      13.65000000      -0.15422500       0.26419300       0.30083900
C        7.10139000       0.00000000      13.65000000       0.03959000      -0.03770100       0.08110000
C        4.97099000       3.68996000      13.65000000       0.01028200      -0.05461800       0.08110100
C        0.00000000       0.00000000      10.35000000      -0.08972700      -0.15541300      -0.03558500
C       -2.13040000       3.68996000      10.35000000      -0.01043900      -0.05191300      -0.07998500
C        4.26080000       0.00000000      10.35000000      -0.03973600      -0.03499200      -0.07998500
C        2.13040000       3.68996000      10.35000000       0.15409400       0.26687900      -0.29968000
C        0.00000000       2.46002000      10.35000000      -0.30353400      -0.00054600      -0.30102800
C       -2.13040000       6.14998000      10.35000000       0.05477800       0.01638300      -0.08134100
C        4.26080000       2.46002000      10.35000000       0.18402600      -0.00052100      -0.03696000
C        2.13040000       6.14998000      10.35000000       0.05477000      -0.01745900      -0.08134100
C        2.13044000       1.23001000      10.35000000       0.15128600      -0.26310700      -0.30097700
C        0.00004000       4.91997000      10.35000000      -0.09247100       0.15912500      -0.03696300
C        6.39124000       1.23001000      10.35000000      -0.01319900       0.05563200      -0.08134100
C        4.26084000       4.91997000      10.35000000      -0.04250500       0.03869600      -0.08134200
C        7.10130000       2.46002000      10.35000000      -0.18170500      -0.00149200      -0.03671400
C       -3.55069000       6.14998000      10.35000000      -0.05244100       0.01543800      -0.08110000
C        2.84050000       2.46002000      10.35000000       0.30587600      -0.00147700      -0.30078800
C        0.71010000       6.14998000      10.35000000      -0.05244300      -0.01840800      -0.08110100
C        0.71015000       1.23001000      10.35000000      -0.15347500      -0.26584800      -0.30076200
C       -1.42025000       4.91997000      10.35000000       0.04033100       0.03601200      -0.08110000
C        4.97095000       1.23001000      10.35000000       0.01101900       0.05292800      -0.08110000
C        2.84055000       4.91997000      10.35000000       0.09031800       0.15643100      -0.03671100
C        2.84059000       0.00000000      10.35000000       0.08955400      -0.15809300      -0.03671000
C        0.71019000       3.68996000      10.35000000      -0.15422500       0.26419300      -0.30083900
C        7.10139000       0.00000000      10.35000000       0.03959000      -0.03770100      -0.08110000
C        4.97099000       3.68996000      10.35000000       0.01028200      -0.05461800      -0.08110100
Li       1.42025000       2.46002000      12.00000000      -0.00004900      -0.00026100       0.00000000
49
Lattice="8.52159977 0.0 0.0 -4.260799885 7.379921881 0.0 0.0 0.0 24.0" Properties=species:S:1:pos:R:3:forces:R:3 stress="-0.005648690589106866 3.102030035563979e-06 -0.0 3.102030035563979e-06 -0.005645107962868609 -0.0 -0.0 -0.0 -0.0022649250731096426" free_energy=-447.45601588 energy=-447.4531099 pbc="T T T"
C        0.00000000       0.00000000      13.65172000      -0.09017500      -0.15619000       0.10857400
C       -2.13040000       3.68996000      13.65386000      -0.00981400      -0.05044700       0.05708200
C        4.26080000       0.00000000      13.65386000      -0.03878000      -0.03371800       0.05708000
C        2.13040000       3.68996000      13.66446000       0.15022300       0.26017600       0.23551100
C        0.00000000       2.46002000      13.66452000      -0.29577400      -0.00053100       0.23597600
C       -2.13040000       6.14998000      13.65392000       0.05319500       0.01620100       0.05771500
C        4.26080000       2.46002000      13.65178000       0.18493600      -0.00052200       0.10919600
C        2.13040000       6.14998000      13.65392000       0.05319100      -0.01727400       0.05772200
C        2.13044000       1.23001000      13.66452000       0.14742200      -0.25638500       0.23595000
C        0.00004000       4.91997000      13.65178000      -0.09292600       0.15991000       0.10921100
C        6.39124000       1.23001000      13.65392000      -0.01256600       0.05417000       0.05771500
C        4.26084000       4.91997000      13.65392000      -0.04155500       0.03742300       0.05772000
C        7.10130000       2.46002000      13.65177000      -0.18263800      -0.00144000       0.10886400
C       -3.55069000       6.14998000      13.65391000      -0.05092800       0.01537100       0.05737000
C        2.84050000       2.46002000      13.66451000       0.29789400      -0.00110800       0.23566000
C        0.71010000       6.14998000      13.65391000      -0.05093000      -0.01810300       0.05736300
C        0.71015000       1.23001000      13.66451000      -0.14982200      -0.25951800       0.23558500
C       -1.42025000       4.91997000      13.65391000       0.03931100       0.03462100       0.05737600
C        4.97095000       1.23001000      13.65391000       0.01032500       0.05135100       0.05737400
C        2.84055000       4.91997000      13.65177000       0.09075000       0.15718100       0.10890400
C        2.84059000       0.00000000      13.65177000       0.09006600      -0.15887800       0.10885000
C        0.71019000       3.68996000      13.66451000      -0.14991300       0.25745800       0.23568600
C        7.10139000       0.00000000      13.65391000       0.03877600      -0.03642400       0.05737200
C        4.97099000       3.68996000      13.65391000       0.00979000      -0.05315700       0.05736300
C        0.00000000       0.00000000      10.34828000      -0.09017500      -0.15619000      -0.10857400
C       -2.13040000       3.68996000      10.34614000      -0.00981400      -0.05044700      -0.05708200
C        4.26080000       0.00000000      10.34614000      -0.03878000      -0.03371800      -0.05708000
C        2.13040000       3.68996000      10.33554000       0.15022300       0.26017600      -0.23551100
C        0.00000000       2.46002000      10.33548000      -0.29577400      -0.00053100      -0.23597600
C       -2.13040000       6.14998000      10.34608000       0.05319500       0.01620100      -0.05771500
C        4.26080000       2.46002000      10.34822000       0.18493600      -0.00052200      -0.10919600
C        2.13040000       6.14998000      10.34608000       0.05319100      -0.01727400      -0.05772200
C        2.13044000       1.23001000      10.33548000       0.14742200      -0.25638500      -0.23595000
C        0.00004000       4.91997000      10.34822000      -0.09292600       0.15991000      -0.10921100
C        6.39124000       1.23001000      10.34608000      -0.01256600       0.05417000      -0.05771500
C        4.26084000       4.91997000      10.34608000      -0.04155500       0.03742300      -0.05772000
C        7.10130000       2.46002000      10.34823000      -0.18263800      -0.00144000      -0.10886400
C       -3.55069000       6.14998000      10.34609000      -0.05092800       0.01537100      -0.05737000
C        2.84050000       2.46002000      10.33549000       0.29789400      -0.00110800      -0.23566000
C        0.71010000       6.14998000      10.34609000      -0.05093000      -0.01810300      -0.05736300
C        0.71015000       1.23001000      10.33549000      -0.14982200      -0.25951800      -0.23558500
C       -1.42025000       4.91997000      10.34609000       0.03931100       0.03462100      -0.05737600
C        4.97095000       1.23001000      10.34609000       0.01032500       0.05135100      -0.05737400
C        2.84055000       4.91997000      10.34823000       0.09075000       0.15718100      -0.10890400
C        2.84059000       0.00000000      10.34823000       0.09006600      -0.15887800      -0.10885000
C        0.71019000       3.68996000      10.33549000      -0.14991300       0.25745800      -0.23568600
C        7.10139000       0.00000000      10.34609000       0.03877600      -0.03642400      -0.05737200
C        4.97099000       3.68996000      10.34609000       0.00979000      -0.05315700      -0.05736300
Li       1.42025000       2.46001000      12.00000000      -0.00011400      -0.00033100      -0.00000000
49
Lattice="8.52159977 0.0 0.0 -4.260799885 7.379921881 0.0 0.0 0.0 24.0" Properties=species:S:1:pos:R:3:forces:R:3 stress="-0.005365120104990612 8.36986373780945e-06 -0.0 8.36986373780945e-06 -0.00535545200735462 -0.0 -0.0 -0.0 -0.0012036750349265863" free_energy=-447.5306083 energy=-447.52769465 pbc="T T T"
C        0.00000000       0.00000000      13.66198000      -0.08838700      -0.15309000       0.09696000
C       -2.13040000       3.68996000      13.65926000      -0.00742000      -0.04669700       0.05671400
C        4.26080000       0.00000000      13.65926000      -0.03672900      -0.02977200       0.05670300
C        2.13040000       3.68996000      13.68673000       0.14684700       0.25433100       0.19099300
C        0.00000000       2.46002000      13.68684000      -0.28581900      -0.01371000       0.18313000
C       -2.13040000       6.14998000      13.65938000       0.05206400       0.01829600       0.05665500
C        4.26080000       2.46002000      13.66211000       0.18469800       0.00139800       0.09679800
C        2.13040000       6.14998000      13.65938000       0.05205500      -0.01554500       0.05666700
C        2.13044000       1.23001000      13.68683000       0.13103300      -0.25436200       0.18312400
C        0.00004000       4.91997000      13.66211000      -0.09114300       0.16066100       0.09680900
C        6.39124000       1.23001000      13.65938000      -0.01018600       0.05423700       0.05666300
C        4.26084000       4.91997000      13.65938000      -0.03949000       0.03730500       0.05666500
C        7.10130000       2.46002000      13.66207000      -0.18031700       0.00075500       0.09703500
C       -3.55069000       6.14998000      13.65934000      -0.04767200       0.01761200       0.05691000
C        2.84050000       2.46002000      13.68679000       0.29747200      -0.01162300       0.18335000
C        0.71010000       6.14998000      13.65934000      -0.04767400      -0.01624100       0.05693700
C        0.71015000       1.23001000      13.68679000      -0.15115200      -0.26181900       0.18572300
C       -1.42025000       4.91997000      13.65934000       0.03937700       0.03436600       0.05691000
C        4.97095000       1.23001000      13.65934000       0.01007200       0.05128200       0.05689900
C        2.84055000       4.91997000      13.66207000       0.09102800       0.15766500       0.09718600
C        2.84059000       0.00000000      13.66206000       0.09080800      -0.15577300       0.09702300
C        0.71019000       3.68996000      13.68680000      -0.15880500       0.25182700       0.18335700
C        7.10139000       0.00000000      13.65934000       0.03908800      -0.03248300       0.05691200
C        4.97099000       3.68996000      13.65934000       0.00977300      -0.04940700       0.05692900
C        0.00000000       0.00000000      10.33802000      -0.08838700      -0.15309000      -0.09696000
C       -2.13040000       3.68996000      10.34074000      -0.00742000      -0.04669700      -0.05671400
C        4.26080000       0.00000000      10.34074000      -0.03672900      -0.02977200      -0.05670300
C        2.13040000       3.68996000      10.31327000       0.14684700       0.25433100      -0.19099300
C        0.00000000       2.46002000      10.31316000      -0.28581900      -0.01371000      -0.18313000
C       -2.13040000       6.14998000      10.34062000       0.05206400       0.01829600      -0.05665500
C        4.26080000       2.46002000      10.33789000       0.18469800       0.00139800      -0.09679800
C        2.13040000       6.14998000      10.34062000       0.05205500      -0.01554500      -0.05666700
C        2.13044000       1.23001000      10.31317000       0.13103300      -0.25436200      -0.18312400
C        0.00004000       4.91997000      10.33789000      -0.09114300       0.16066100      -0.09680900
C        6.39124000       1.23001000      10.34062000      -0.01018600       0.05423700      -0.05666300
C        4.26084000       4.91997000      10.34062000      -0.03949000       0.03730500      -0.05666500
C        7.10130000       2.46002000      10.33793000      -0.18031700       0.00075500      -0.09703500
C       -3.55069000       6.14998000      10.34066000      -0.04767200       0.01761200      -0.05691000
C        2.84050000       2.46002000      10.31321000       0.29747200      -0.01162300      -0.18335000
C        0.71010000       6.14998000      10.34066000      -0.04767400      -0.01624100      -0.05693700
C        0.71015000       1.23001000      10.31321000      -0.15115200      -0.26181900      -0.18572300
C       -1.42025000       4.91997000      10.34066000       0.03937700       0.03436600      -0.05691000
C        4.97095000       1.23001000      10.34066000       0.01007200       0.05128200      -0.05689900
C        2.84055000       4.91997000      10.33793000       0.09102800       0.15766500      -0.09718600
C        2.84059000       0.00000000      10.33794000       0.09080800      -0.15577300      -0.09702300
C        0.71019000       3.68996000      10.31320000      -0.15880500       0.25182700      -0.18335700
C        7.10139000       0.00000000      10.34066000       0.03908800      -0.03248300      -0.05691200
C        4.97099000       3.68996000      10.34066000       0.00977300      -0.04940700      -0.05692900
Li       1.42024000       2.45998000      12.00000000       0.00095800       0.00157600       0.00000000
49
Lattice="8.52159977 0.0 0.0 -4.260799885 7.379921881 0.0 0.0 0.0 24.0" Properties=species:S:1:pos:R:3:forces:R:3 stress="-0.004840034425248306 5.3489733208819525e-06 -0.0 5.3489733208819525e-06 -0.004833861572722807 -0.0 -0.0 -0.0 0.0010782394260237106" free_energy=-447.71794861 energy=-447.71499998 pbc="T T T"
C        0.00000000       0.00000000      13.70437000      -0.07621300      -0.13200200       0.12968900
C       -2.13040000       3.68996000      13.68289000       0.00118300      -0.04804600       0.06789000
C        4.26080000       0.00000000      13.68289000      -0.04220000      -0.02300000       0.06787300
C        2.13040000       3.68996000      13.77412000       0.14804400       0.25641200      -0.05151600
C        0.00000000       2.46002000      13.77246000      -0.29011200      -0.00075300      -0.00195300
C       -2.13040000       6.14998000      13.68312000       0.04571200       0.02436700       0.06546700
C        4.26080000       2.46002000      13.70457000       0.15792000      -0.00026000       0.12153800
C        2.13040000       6.14998000      13.68313000       0.04550700      -0.02554500       0.06449700
C        2.13044000       1.23001000      13.77245000       0.14440400      -0.25161500      -0.00192400
C        0.00004000       4.91997000      13.70458000      -0.07918500       0.13663100       0.12155100
C        6.39124000       1.23001000      13.68312000      -0.00175200       0.05177100       0.06547300
C        4.26084000       4.91997000      13.68312000      -0.04487500       0.02663800       0.06448700
C        7.10130000       2.46002000      13.70453000      -0.15542500      -0.00134600       0.12178100
C       -3.55069000       6.14998000      13.68307000      -0.04355200       0.02397700       0.06432600
C        2.84050000       2.46002000      13.77241000       0.29224300      -0.00146700       0.00571800
C        0.71010000       6.14998000      13.68308000      -0.04368300      -0.02596800       0.06606000
C        0.71015000       1.23001000      13.77295000      -0.14697500      -0.25457400      -0.01081900
C       -1.42025000       4.91997000      13.68308000       0.04241700       0.02357600       0.06458000
C        4.97095000       1.23001000      13.68307000      -0.00079000       0.04852200       0.06456500
C        2.84055000       4.91997000      13.70457000       0.07621300       0.13200700       0.13393500
C        2.84059000       0.00000000      13.70452000       0.07654600      -0.13527700       0.12176900
C        0.71019000       3.68996000      13.77243000      -0.14739100       0.25236200       0.00568700
C        7.10139000       0.00000000      13.68307000       0.04254100      -0.02572800       0.06433500
C        4.97099000       3.68996000      13.68308000      -0.00064600      -0.05081500       0.06605400
C        0.00000000       0.00000000      10.29563000      -0.07621300      -0.13200200      -0.12968900
C       -2.13040000       3.68996000      10.31711000       0.00118300      -0.04804600      -0.06789000
C        4.26080000       0.00000000      10.31711000      -0.04220000      -0.02300000      -0.06787300
C        2.13040000       3.68996000      10.22588000       0.14804400       0.25641200       0.05151600
C        0.00000000       2.46002000      10.22754000      -0.29011200      -0.00075300       0.00195300
C       -2.13040000       6.14998000      10.31688000       0.04571200       0.02436700      -0.06546700
C        4.26080000       2.46002000      10.29543000       0.15792000      -0.00026000      -0.12153800
C        2.13040000       6.14998000      10.31687000       0.04550700      -0.02554500      -0.06449700
C        2.13044000       1.23001000      10.22755000       0.14440400      -0.25161500       0.00192400
C        0.00004000       4.91997000      10.29542000      -0.07918500       0.13663100      -0.12155100
C        6.39124000       1.23001000      10.31688000      -0.00175200       0.05177100      -0.06547300
C        4.26084000       4.91997000      10.31688000      -0.04487500       0.02663800      -0.06448700
C        7.10130000       2.46002000      10.29547000      -0.15542500      -0.00134600      -0.12178100
C       -3.55069000       6.14998000      10.31693000      -0.04355200       0.02397700      -0.06432600
C        2.84050000       2.46002000      10.22759000       0.29224300      -0.00146700      -0.00571800
C        0.71010000       6.14998000      10.31692000      -0.04368300      -0.02596800      -0.06606000
C        0.71015000       1.23001000      10.22705000      -0.14697500      -0.25457400       0.01081900
C       -1.42025000       4.91997000      10.31692000       0.04241700       0.02357600      -0.06458000
C        4.97095000       1.23001000      10.31693000      -0.00079000       0.04852200      -0.06456500
C        2.84055000       4.91997000      10.29543000       0.07621300       0.13200700      -0.13393500
C        2.84059000       0.00000000      10.29548000       0.07654600      -0.13527700      -0.12176900
C        0.71019000       3.68996000      10.22757000      -0.14739100       0.25236200      -0.00568700
C        7.10139000       0.00000000      10.31693000       0.04254100      -0.02572800      -0.06433500
C        4.97099000       3.68996000      10.31692000      -0.00064600      -0.05081500      -0.06605400
Li       1.42044000       2.46029000      12.00000000       0.00013900       0.00026800      -0.00000000
49
Lattice="8.52159977 0.0 0.0 -4.260799885 7.379921881 0.0 0.0 0.0 24.0" Properties=species:S:1:pos:R:3:forces:R:3 stress="-0.004909833221803058 2.2906338491991557e-06 -0.0 2.2906338491991557e-06 -0.0049071868219336835 -0.0 -0.0 -0.0 0.0009807283289500362" free_energy=-447.71091957 energy=-447.70797603 pbc="T T T"
C        0.00000000       0.00000000      13.70289000      -0.08215000      -0.14228700       0.07544400
C       -2.13040000       3.68996000      13.68191000      -0.00085600      -0.04777600       0.07251900
C        4.26080000       0.00000000      13.68191000      -0.04094700      -0.02463000       0.07250800
C        2.13040000       3.68996000      13.75831000       0.14235600       0.24656100       0.07470800
C        0.00000000       2.46002000      13.75886000      -0.28036700      -0.00040400       0.06486800
C       -2.13040000       6.14998000      13.68202000       0.04660100       0.02275000       0.07070800
C        4.26080000       2.46002000      13.70275000       0.16885500      -0.00043600       0.07772700
C        2.13040000       6.14998000      13.68199000       0.04671000      -0.02373900       0.07506600
C        2.13044000       1.23001000      13.75885000       0.13983500      -0.24300100       0.06487900
C        0.00004000       4.91997000      13.70276000      -0.08480700       0.14601600       0.07773200
C        6.39124000       1.23001000      13.68203000      -0.00359800       0.05173300       0.07071300
C        4.26084000       4.91997000      13.68199000      -0.04391400       0.02858200       0.07506000
C        7.10130000       2.46002000      13.70271000      -0.16670500      -0.00110500       0.07668700
C       -3.55069000       6.14998000      13.68193000      -0.04441400       0.02239500       0.07401400
C        2.84050000       2.46002000      13.75912000       0.28558900      -0.00530000       0.05030900
C        0.71010000       6.14998000      13.68201000      -0.04438900      -0.02402000       0.07122100
C        0.71015000       1.23001000      13.75893000      -0.14169600      -0.24543200       0.06262000
C       -1.42025000       4.91997000      13.68195000       0.04139600       0.02542700       0.07271200
C        4.97095000       1.23001000      13.68194000       0.00132400       0.04856400       0.07270000
C        2.84055000       4.91997000      13.70324000       0.08342500       0.14449800       0.06721400
C        2.84059000       0.00000000      13.70271000       0.08239400      -0.14492100       0.07668100
C        0.71019000       3.68996000      13.75913000      -0.14738300       0.24468200       0.05029900
C        7.10139000       0.00000000      13.68194000       0.04160200      -0.02726600       0.07402000
C        4.97099000       3.68996000      13.68201000       0.00139300      -0.05045200       0.07121600
C        0.00000000       0.00000000      10.29711000      -0.08215000      -0.14228700      -0.07544400
C       -2.13040000       3.68996000      10.31809000      -0.00085600      -0.04777600      -0.07251900
C        4.26080000       0.00000000      10.31809000      -0.04094700      -0.02463000      -0.07250800
C        2.13040000       3.68996000      10.24169000       0.14235600       0.24656100      -0.07470800
C        0.00000000       2.46002000      10.24114000      -0.28036700      -0.00040400      -0.06486800
C       -2.13040000       6.14998000      10.31798000       0.04660100       0.02275000      -0.07070800
C        4.26080000       2.46002000      10.29725000       0.16885500      -0.00043600      -0.07772700
C        2.13040000       6.14998000      10.31801000       0.04671000      -0.02373900      -0.07506600
C        2.13044000       1.23001000      10.24115000       0.13983500      -0.24300100      -0.06487900
C        0.00004000       4.91997000      10.29724000      -0.08480700       0.14601600      -0.07773200
C        6.39124000       1.23001000      10.31797000      -0.00359800       0.05173300      -0.07071300
C        4.26084000       4.91997000      10.31801000      -0.04391400       0.02858200      -0.07506000
C        7.10130000       2.46002000      10.29729000      -0.16670500      -0.00110500      -0.07668700
C       -3.55069000       6.14998000      10.31807000      -0.04441400       0.02239500      -0.07401400
C        2.84050000       2.46002000      10.24088000       0.28558900      -0.00530000      -0.05030900
C        0.71010000       6.14998000      10.31799000      -0.04438900      -0.02402000      -0.07122100
C        0.71015000       1.23001000      10.24107000      -0.14169600      -0.24543200      -0.06262000
C       -1.42025000       4.91997000      10.31805000       0.04139600       0.02542700      -0.07271200
C        4.97095000       1.23001000      10.31806000       0.00132400       0.04856400      -0.07270000
C        2.84055000       4.91997000      10.29676000       0.08342500       0.14449800      -0.06721400
C        2.84059000       0.00000000      10.29729000       0.08239400      -0.14492100      -0.07668100
C        0.71019000       3.68996000      10.24087000      -0.14738300       0.24468200      -0.05029900
C        7.10139000       0.00000000      10.31806000       0.04160200      -0.02726600      -0.07402000
C        4.97099000       3.68996000      10.31799000       0.00139300      -0.05045200      -0.07121600
Li       1.42042000       2.46026000      12.00000000      -0.00051000      -0.00087500       0.00000000
49
Lattice="8.52159977 0.0 0.0 -4.260799885 7.379921881 0.0 0.0 0.0 24.0" Properties=species:S:1:pos:R:3:forces:R:3 stress="-0.0049336383376091765 3.02713192605338e-06 -0.0 3.02713192605338e-06 -0.0049301368509895565 -0.0 -0.0 -0.0 0.0010056007428166812" free_energy=-447.72512015 energy=-447.72217438 pbc="T T T"
C        0.00000000       0.00000000      13.70745000      -0.08193900      -0.14192100       0.06688500
C       -2.13040000       3.68996000      13.68558000      -0.00067000      -0.04795700       0.08033900
C        4.26080000       0.00000000      13.68558000      -0.04119600      -0.02455900       0.08033000
C        2.13040000       3.68996000      13.76409000       0.14211800       0.24614700       0.03096200
C        0.00000000       2.46002000      13.76431000      -0.27980400      -0.00058600       0.02981000
C       -2.13040000       6.14998000      13.68562000       0.04646700       0.02288100       0.07996200
C        4.26080000       2.46002000      13.70738000       0.16872600      -0.00054200       0.07699400
C        2.13040000       6.14998000      13.68575000       0.04649000      -0.02395900       0.07952500
C        2.13044000       1.23001000      13.76430000       0.13939600      -0.24260500       0.02981800
C        0.00004000       4.91997000      13.70739000      -0.08483500       0.14585300       0.07699700
C        6.39124000       1.23001000      13.68563000      -0.00341700       0.05168300       0.07996500
C        4.26084000       4.91997000      13.68575000      -0.04399400       0.02828200       0.07952000
C        7.10130000       2.46002000      13.70731000      -0.16598100      -0.00143900       0.07946800
C       -3.55069000       6.14998000      13.68566000      -0.04441600       0.02243800       0.08092300
C        2.84050000       2.46002000      13.76404000       0.28207100      -0.00165600       0.03390200
C        0.71010000       6.14998000      13.68563000      -0.04446800      -0.02445800       0.08052500
C        0.71015000       1.23001000      13.76429000      -0.14140300      -0.24492600       0.03207000
C       -1.42025000       4.91997000      13.68562000       0.04154900       0.02511800       0.08021100
C        4.97095000       1.23001000      13.68562000       0.00097900       0.04854100       0.08020200
C        2.84055000       4.91997000      13.70750000       0.08267300       0.14319600       0.06524800
C        2.84059000       0.00000000      13.70730000       0.08174300      -0.14446100       0.07946600
C        0.71019000       3.68996000      13.76405000      -0.14246800       0.24345700       0.03389300