49
Lattice="8.52159977 0.0 0.0 -4.260799885 7.379921881 0.0 0.0 0.0 24.0" Properties=species:S:1:pos:R:3:forces:R:3 stress="-0.006172203408549451 3.208135690703995e-06 -0.0 3.208135690703995e-06 -0.006168508435146927 -0.0 -0.0 -0.0 0.0012132869589804465" free_energy=-447.8196077 energy=-447.81661099 pbc="T T T"
C        0.00000000       0.00000000      13.75000000      -0.08959400      -0.15518400      -0.00816000
C       -2.13040000       3.68996000      13.75000000      -0.01271800      -0.04766300       0.03254800
C        4.26080000       0.00000000      13.75000000      -0.03491500      -0.03484200       0.03254800
C        2.13040000       3.68996000      13.75000000       0.12735700       0.22057000       0.16286000
C        0.00000000       2.46002000      13.75000000      -0.25005900      -0.00053400       0.16401000
C       -2.13040000       6.14998000      13.75000000       0.05224500       0.01229100       0.03363800
C        4.26080000       2.46002000      13.75000000       0.18377500      -0.00052000      -0.00706000
C        2.13040000       6.14998000      13.75000000       0.05223800      -0.01335400       0.03363700
C        2.13044000       1.23001000      13.75000000       0.12456300      -0.21680200       0.16397700
C        0.00004000       4.91997000      13.75000000      -0.09234500       0.15890700      -0.00705800
C        6.39124000       1.23001000      13.75000000      -0.01547600       0.05139300       0.03363800
C        4.26084000       4.91997000      13.75000000      -0.03768400       0.03855800       0.03363800
C        7.10130000       2.46002000      13.75000000      -0.18116600      -0.00198600      -0.00719400
C       -3.55069000       6.14998000      13.75000000      -0.04962200       0.01085200       0.03350600
C        2.84050000       2.46002000      13.75000000       0.25269300      -0.00198400       0.16385900
C        0.71010000       6.14998000      13.75000000      -0.04962300      -0.01479600       0.03350600
C        0.71015000       1.23001000      13.75000000      -0.12644500      -0.21902600       0.16385300
C       -1.42025000       4.91997000      13.75000000       0.03579900       0.03635800       0.03350600
C        4.97095000       1.23001000      13.75000000       0.01358500       0.04917700       0.03350600
C        2.84055000       4.91997000      13.75000000       0.09047200       0.15670200      -0.00719100
C        2.84059000       0.00000000      13.75000000       0.08885700      -0.15787400      -0.00719600
C        0.71019000       3.68996000      13.75000000      -0.12806800       0.21786800       0.16389200
C        7.10139000       0.00000000      13.75000000       0.03420800      -0.03755300       0.03350600
C        4.97099000       3.68996000      13.75000000       0.01199900      -0.05037200       0.03350500
C        0.00000000       0.00000000      10.25000000      -0.08959400      -0.15518400       0.00816000
C       -2.13040000       3.68996000      10.25000000      -0.01271800      -0.04766300      -0.03254800
C        4.26080000       0.00000000      10.25000000      -0.03491500      -0.03484200      -0.03254800
C        2.13040000       3.68996000      10.25000000       0.12735700       0.22057000      -0.16286000
C        0.00000000       2.46002000      10.25000000      -0.25005900      -0.00053400      -0.16401000
C       -2.13040000       6.14998000      10.25000000       0.05224500       0.01229100      -0.03363800
C        4.26080000       2.46002000      10.25000000       0.18377500      -0.00052000       0.00706000
C        2.13040000       6.14998000      10.25000000       0.05223800      -0.01335400      -0.03363700
C        2.13044000       1.23001000      10.25000000       0.12456300      -0.21680200      -0.16397700
C        0.00004000       4.91997000      10.25000000      -0.09234500       0.15890700       0.00705800
C        6.39124000       1.23001000      10.25000000      -0.01547600       0.05139300      -0.03363800
C        4.26084000       4.91997000      10.25000000      -0.03768400       0.03855800      -0.03363800
C        7.10130000       2.46002000      10.25000000      -0.18116600      -0.00198600       0.00719400
C       -3.55069000       6.14998000      10.25000000      -0.04962200       0.01085200      -0.03350600
C        2.84050000       2.46002000      10.25000000       0.25269300      -0.00198400      -0.16385900
C        0.71010000       6.14998000      10.25000000      -0.04962300      -0.01479600      -0.03350600
C        0.71015000       1.23001000      10.25000000      -0.12644500      -0.21902600      -0.16385300
C       -1.42025000       4.91997000      10.25000000       0.03579900       0.03635800      -0.03350600
C        4.97095000       1.23001000      10.25000000       0.01358500       0.04917700      -0.03350600
C        2.84055000       4.91997000      10.25000000       0.09047200       0.15670200       0.00719100
C        2.84059000       0.00000000      10.25000000       0.08885700      -0.15787400       0.00719600
C        0.71019000       3.68996000      10.25000000      -0.12806800       0.21786800      -0.16389200
C        7.10139000       0.00000000      10.25000000       0.03420800      -0.03755300      -0.03350600
C        4.97099000       3.68996000      10.25000000       0.01199900      -0.05037200      -0.03350500
Li       1.42025000       2.46002000      12.00000000      -0.00015300      -0.00037500       0.00000000
49
Lattice="8.52159977 0.0 0.0 -4.260799885 7.379921881 0.0 0.0 0.0 24.0" Properties=species:S:1:pos:R:3:forces:R:3 stress="-0.005907738183867525 3.189411163326345e-06 -0.0 3.189411163326345e-06 -0.0059040556934832535 -0.0 -0.0 -0.0 0.0014171970621230526" free_energy=-447.83465999 energy=-447.83163059 pbc="T T T"
C        0.00000000       0.00000000      13.74961000      -0.08970500      -0.15537500       0.04285900
C       -2.13040000       3.68996000      13.75157000      -0.01250600      -0.04682900       0.01442800
C        4.26080000       0.00000000      13.75157000      -0.03430000      -0.03424100       0.01442700
C        2.13040000       3.68996000      13.75786000       0.12587100       0.21799900       0.13774200
C        0.00000000       2.46002000      13.75791000      -0.24707500      -0.00052100       0.13856800
C       -2.13040000       6.14998000      13.75162000       0.05141600       0.01206300       0.01504300
C        4.26080000       2.46002000      13.74966000       0.18399500      -0.00052100       0.04336800
C        2.13040000       6.14998000      13.75162000       0.05141300      -0.01312900       0.01505100
C        2.13044000       1.23001000      13.75791000       0.12308500      -0.21421400       0.13854700
C        0.00004000       4.91997000      13.74966000      -0.09245500       0.15909700       0.04337800
C        6.39124000       1.23001000      13.75162000      -0.01526000       0.05056000       0.01504300
C        4.26084000       4.91997000      13.75162000      -0.03707600       0.03795600       0.01505000
C        7.10130000       2.46002000      13.74965000      -0.18138500      -0.00199200       0.04307800
C       -3.55069000       6.14998000      13.75162000      -0.04881500       0.01065700       0.01475600
C        2.84050000       2.46002000      13.75790000       0.24960000      -0.00180700       0.13827800
C        0.71010000       6.14998000      13.75162000      -0.04881400      -0.01453400       0.01474700
C        0.71015000       1.23001000      13.75790000      -0.12506600      -0.21663700       0.13825400
C       -1.42025000       4.91997000      13.75162000       0.03516700       0.03572200       0.01475800
C        4.97095000       1.23001000      13.75162000       0.01335000       0.04831300       0.01475700
C        2.84055000       4.91997000      13.74965000       0.09059400       0.15691100       0.04308000
C        2.84059000       0.00000000      13.74965000       0.08896100      -0.15806800       0.04306800
C        0.71019000       3.68996000      13.75791000      -0.12636800       0.21527700       0.13829900
C        7.10139000       0.00000000      13.75162000       0.03363600      -0.03695100       0.01475700
C        4.97099000       3.68996000      13.75162000       0.01182200      -0.04954000       0.01474700
C        0.00000000       0.00000000      10.25039000      -0.08970500      -0.15537500      -0.04285900
C       -2.13040000       3.68996000      10.24843000      -0.01250600      -0.04682900      -0.01442800
C        4.26080000       0.00000000      10.24843000      -0.03430000      -0.03424100      -0.01442700
C        2.13040000       3.68996000      10.24214000       0.12587100       0.21799900      -0.13774200
C        0.00000000       2.46002000      10.24209000      -0.24707500      -0.00052100      -0.13856800
C       -2.13040000       6.14998000      10.24838000       0.05141600       0.01206300      -0.01504300
C        4.26080000       2.46002000      10.25034000       0.18399500      -0.00052100      -0.04336800
C        2.13040000       6.14998000      10.24838000       0.05141300      -0.01312900      -0.01505100
C        2.13044000       1.23001000      10.24209000       0.12308500      -0.21421400      -0.13854700
C        0.00004000       4.91997000      10.25034000      -0.09245500       0.15909700      -0.04337800
C        6.39124000       1.23001000      10.24838000      -0.01526000       0.05056000      -0.01504300
C        4.26084000       4.91997000      10.24838000      -0.03707600       0.03795600      -0.01505000
C        7.10130000       2.46002000      10.25035000      -0.18138500      -0.00199200      -0.04307800
C       -3.55069000       6.14998000      10.24838000      -0.04881500       0.01065700      -0.01475600
C        2.84050000       2.46002000      10.24210000       0.24960000      -0.00180700      -0.13827800
C        0.71010000       6.14998000      10.24838000      -0.04881400      -0.01453400      -0.01474700
C        0.71015000       1.23001000      10.24210000      -0.12506600      -0.21663700      -0.13825400
C       -1.42025000       4.91997000      10.24838000       0.03516700       0.03572200      -0.01475800
C        4.97095000       1.23001000      10.24838000       0.01335000       0.04831300      -0.01475700
C        2.84055000       4.91997000      10.25035000       0.09059400       0.15691100      -0.04308000
C        2.84059000       0.00000000      10.25035000       0.08896100      -0.15806800      -0.04306800
C        0.71019000       3.68996000      10.24209000      -0.12636800       0.21527700      -0.13829900
C        7.10139000       0.00000000      10.24838000       0.03363600      -0.03695100      -0.01475700
C        4.97099000       3.68996000      10.24838000       0.01182200      -0.04954000      -0.01474700
Li       1.42025000       2.46001000      12.00000000      -0.00017200      -0.00039200      -0.00000000
49
Lattice="8.52159977 0.0 0.0 -4.260799885 7.379921881 0.0 0.0 0.0 24.0" Properties=species:S:1:pos:R:3:forces:R:3 stress="-0.005842539379538549 3.158203617696929e-06 -0.0 3.158203617696929e-06 -0.005838894338209032 -0.0 -0.0 -0.0 0.0014354285102797576" free_energy=-447.85029461 energy=-447.84720311 pbc="T T T"
C        0.00000000       0.00000000      13.75268000      -0.08944100      -0.15491700       0.05214600
C       -2.13040000       3.68996000      13.75261000      -0.01212100      -0.04588000       0.01722800
C        4.26080000       0.00000000      13.75261000      -0.03367200      -0.03343400       0.01722200
C        2.13040000       3.68996000      13.76774000       0.12450600       0.21563500       0.08546800
C        0.00000000       2.46002000      13.76786000      -0.24435200      -0.00051900       0.08566200
C       -2.13040000       6.14998000      13.75270000       0.05040700       0.01191900       0.01742900
C        4.26080000       2.46002000      13.75277000       0.18347900      -0.00051900       0.05242100
C        2.13040000       6.14998000      13.75270000       0.05040400      -0.01298800       0.01743300
C        2.13044000       1.23001000      13.76785000       0.12172600      -0.21185700       0.08565200
C        0.00004000       4.91997000      13.75277000      -0.09219500       0.15864900       0.05243100
C        6.39124000       1.23001000      13.75270000      -0.01488000       0.04961400       0.01743300
C        4.26084000       4.91997000      13.75270000      -0.03645000       0.03715300       0.01743100
C        7.10130000       2.46002000      13.75274000      -0.18089200      -0.00192500       0.05248700
C       -3.55069000       6.14998000      13.75268000      -0.04781500       0.01053700       0.01753800
C        2.84050000       2.46002000      13.76783000       0.24672200      -0.00155000       0.08550500
C        0.71010000       6.14998000      13.75267000      -0.04781500      -0.01437000       0.01748400
C        0.71015000       1.23001000      13.76783000      -0.12387300      -0.21457100       0.08560400
C       -1.42025000       4.91997000      13.75268000       0.03452400       0.03489700       0.01749400
C        4.97095000       1.23001000      13.75268000       0.01295800       0.04734400       0.01748700
C        2.84055000       4.91997000      13.75275000       0.09030700       0.15641400       0.05241700
C        2.84059000       0.00000000      13.75274000       0.08877500      -0.15760900       0.05247700
C        0.71019000       3.68996000      13.76783000      -0.12470500       0.21291000       0.08551600
C        7.10139000       0.00000000      13.75268000       0.03303300      -0.03614500       0.01754000
C        4.97099000       3.68996000      13.75267000       0.01146300      -0.04859300       0.01748000
C        0.00000000       0.00000000      10.24732000      -0.08944100      -0.15491700      -0.05214600
C       -2.13040000       3.68996000      10.24739000      -0.01212100      -0.04588000      -0.01722800
C        4.26080000       0.00000000      10.24739000      -0.03367200      -0.03343400      -0.01722200
C        2.13040000       3.68996000      10.23226000       0.12450600       0.21563500      -0.08546800
C        0.00000000       2.46002000      10.23214000      -0.24435200      -0.00051900      -0.08566200
C       -2.13040000       6.14998000      10.24730000       0.05040700       0.01191900      -0.01742900
C        4.26080000       2.46002000      10.24723000       0.18347900      -0.00051900      -0.05242100
C        2.13040000       6.14998000      10.24730000       0.05040400      -0.01298800      -0.01743300
C        2.13044000       1.23001000      10.23215000       0.12172600      -0.21185700      -0.08565200
C        0.00004000       4.91997000      10.24723000      -0.09219500       0.15864900      -0.05243100
C        6.39124000       1.23001000      10.24730000      -0.01488000       0.04961400      -0.01743300
C        4.26084000       4.91997000      10.24730000      -0.03645000       0.03715300      -0.01743100
C        7.10130000       2.46002000      10.24726000      -0.18089200      -0.00192500      -0.05248700
C       -3.55069000       6.14998000      10.24732000      -0.04781500       0.01053700      -0.01753800
C        2.84050000       2.46002000      10.23217000       0.24672200      -0.00155000      -0.08550500
C        0.71010000       6.14998000      10.24733000      -0.04781500      -0.01437000      -0.01748400
C        0.71015000       1.23001000      10.23217000      -0.12387300      -0.21457100      -0.08560400
C       -1.42025000       4.91997000      10.24732000       0.03452400       0.03489700      -0.01749400
C        4.97095000       1.23001000      10.24732000       0.01295800       0.04734400      -0.01748700
C        2.84055000       4.91997000      10.24725000       0.09030700       0.15641400      -0.05241700
C        2.84059000       0.00000000      10.24726000       0.08877500      -0.15760900      -0.05247700
C        0.71019000       3.68996000      10.23217000      -0.12470500       0.21291000      -0.08551600
C        7.10139000       0.00000000      10.24732000       0.03303300      -0.03614500      -0.01754000
C        4.97099000       3.68996000      10.24733000       0.01146300      -0.04859300      -0.01748000
Li       1.42023000       2.45998000      12.00000000      -0.00018200      -0.00039100       0.00000000
49
Lattice="8.52159977 0.0 0.0 -4.260799885 7.379921881 0.0 0.0 0.0 24.0" Properties=species:S:1:pos:R:3:forces:R:3 stress="-0.00576153083259371 3.1644451268228113e-06 -0.0 3.1644451268228113e-06 -0.005757873308245942 -0.0 -0.0 -0.0 0.0019630856917819284" free_energy=-447.8668576 energy=-447.86362919 pbc="T T T"
C        0.00000000       0.00000000      13.76003000      -0.08911100      -0.15434500       0.03247800
C       -2.13040000       3.68996000      13.75504000      -0.01139200      -0.04505000       0.03305500
C        4.26080000       0.00000000      13.75504000      -0.03331800      -0.03238800       0.03304900
C        2.13040000       3.68996000      13.78023000       0.12290000       0.21285600       0.06639700
C        0.00000000       2.46002000      13.78037000      -0.24119300      -0.00049800       0.06635300
C       -2.13040000       6.14998000      13.75516000       0.04932200       0.01211700       0.03305900
C        4.26080000       2.46002000      13.76016000       0.18283700      -0.00051500       0.03224800
C        2.13040000       6.14998000      13.75517000       0.04931100      -0.01319200       0.03297800
C        2.13044000       1.23001000      13.78037000       0.12016500      -0.20911400       0.06635000
C        0.00004000       4.91997000      13.76017000      -0.09186900       0.15809300       0.03225900
C        6.39124000       1.23001000      13.75516000      -0.01416600       0.04877400       0.03306100
C        4.26084000       4.91997000      13.75517000      -0.03608000       0.03610600       0.03297400
C        7.10130000       2.46002000      13.76014000      -0.18034700      -0.00173800       0.03208600
C       -3.55069000       6.14998000      13.75515000      -0.04675800       0.01078100       0.03256000
C        2.84050000       2.46002000      13.78032000       0.24332600      -0.00117800       0.06635400
C        0.71010000       6.14998000      13.75514000      -0.04676000      -0.01453000       0.03268300
C        0.71015000       1.23001000      13.78033000      -0.12249700      -0.21218500       0.06623200
C       -1.42025000       4.91997000      13.75514000       0.03412500       0.03380400       0.03266300
C        4.97095000       1.23001000      13.75514000       0.01221000       0.04645300       0.03265600
C        2.84055000       4.91997000      13.76014000       0.08988500       0.15568400       0.03215300
C        2.84059000       0.00000000      13.76014000       0.08866400      -0.15704600       0.03207500
C        0.71019000       3.68996000      13.78033000      -0.12268400       0.21015100       0.06635700
C        7.10139000       0.00000000      13.75515000       0.03271600      -0.03510600       0.03256400
C        4.97099000       3.68996000      13.75514000       0.01079700      -0.04775900       0.03268100
C        0.00000000       0.00000000      10.23997000      -0.08911100      -0.15434500      -0.03247800
C       -2.13040000       3.68996000      10.24496000      -0.01139200      -0.04505000      -0.03305500
C        4.26080000       0.00000000      10.24496000      -0.03331800      -0.03238800      -0.03304900
C        2.13040000       3.68996000      10.21977000       0.12290000       0.21285600      -0.06639700
C        0.00000000       2.46002000      10.21963000      -0.24119300      -0.00049800      -0.06635300
C       -2.13040000       6.14998000      10.24484000       0.04932200       0.01211700      -0.03305900
C        4.26080000       2.46002000      10.23984000       0.18283700      -0.00051500      -0.03224800
C        2.13040000       6.14998000      10.24483000       0.04931100      -0.01319200      -0.03297800
C        2.13044000       1.23001000      10.21963000       0.12016500      -0.20911400      -0.06635000
C        0.00004000       4.91997000      10.23983000      -0.09186900       0.15809300      -0.03225900
C        6.39124000       1.23001000      10.24484000      -0.01416600       0.04877400      -0.03306100
C        4.26084000       4.91997000      10.24483000      -0.03608000       0.03610600      -0.03297400
C        7.10130000       2.46002000      10.23986000      -0.18034700      -0.00173800      -0.03208600
C       -3.55069000       6.14998000      10.24485000      -0.04675800       0.01078100      -0.03256000
C        2.84050000       2.46002000      10.21968000       0.24332600      -0.00117800      -0.06635400
C        0.71010000       6.14998000      10.24486000      -0.04676000      -0.01453000      -0.03268300
C        0.71015000       1.23001000      10.21967000      -0.12249700      -0.21218500      -0.06623200
C       -1.42025000       4.91997000      10.24486000       0.03412500       0.03380400      -0.03266300
C        4.97095000       1.23001000      10.24486000       0.01221000       0.04645300      -0.03265600
C        2.84055000       4.91997000      10.23986000       0.08988500       0.15568400      -0.03215300
C        2.84059000       0.00000000      10.23986000       0.08866400      -0.15704600      -0.03207500
C        0.71019000       3.68996000      10.21967000      -0.12268400       0.21015100      -0.06635700
C        7.10139000       0.00000000      10.24485000       0.03271600      -0.03510600      -0.03256400
C        4.97099000       3.68996000      10.24486000       0.01079700      -0.04775900      -0.03268100
Li       1.42021000       2.45992000      12.00000000      -0.00016800      -0.00034300       0.00000000
49
Lattice="8.52159977 0.0 0.0 -4.260799885 7.379921881 0.0 0.0 0.0 24.0" Properties=species:S:1:pos:R:3:forces:R:3 stress="-0.005919740605916599 4.306641296859448e-06 -0.0 4.306641296859448e-06 -0.005914766123143269 -0.0 -0.0 -0.0 0.0018611119156832477" free_energy=-447.88163193 energy=-447.8782235 pbc="T T T"
C        0.00000000       0.00000000      13.76628000      -0.08815600      -0.15269000       0.00954500
C       -2.13040000       3.68996000      13.75897000      -0.01045500      -0.04399600       0.04185800
C        4.26080000       0.00000000      13.75896000      -0.03287400      -0.03105100       0.04185000
C        2.13040000       3.68996000      13.79188000       0.12227700       0.21177900       0.04743600
C        0.00000000       2.46002000      13.79204000      -0.23927800      -0.00008100       0.04667000
C       -2.13040000       6.14998000      13.75911000       0.04895200       0.00924600       0.03789300
C        4.26080000       2.46002000      13.76641000       0.18164300      -0.00010600       0.00933800
C        2.13040000       6.14998000      13.75910000       0.04892100      -0.01659400       0.03792100
C        2.13044000       1.23001000      13.79203000       0.11957000      -0.20725100       0.04666900
C        0.00004000       4.91997000      13.76642000      -0.09091700       0.15726100       0.00934300
C        6.39124000       1.23001000      13.75911000      -0.01646800       0.04701700       0.03789700
C        4.26084000       4.91997000      13.75910000      -0.03883100       0.03406800       0.03791700
C        7.10130000       2.46002000      13.76638000      -0.17875200      -0.00116000       0.00957900
C       -3.55069000       6.14998000      13.75906000      -0.04567500       0.01157200       0.04209800
C        2.84050000       2.46002000      13.79197000       0.24177000      -0.00058200       0.04702300
C        0.71010000       6.14998000      13.75906000      -0.04567100      -0.01430200       0.04206300
C        0.71015000       1.23001000      13.79198000      -0.12152700      -0.21050200       0.04705000
C       -1.42025000       4.91997000      13.75906000       0.03410500       0.03322000       0.04208600
C        4.97095000       1.23001000      13.75906000       0.01171600       0.04614400       0.04207800
C        2.84055000       4.91997000      13.76637000       0.08930800       0.15468500       0.00959000
C        2.84059000       0.00000000      13.76638000       0.08836700      -0.15537700       0.00957400
C        0.71019000       3.68996000      13.79198000      -0.12138900       0.20909900       0.04702400
C        7.10139000       0.00000000      13.75906000       0.03285900      -0.03377100       0.04210200
C        4.97099000       3.68996000      13.75906000       0.01045000      -0.04670200       0.04205900
C        0.00000000       0.00000000      10.23372000      -0.08815600      -0.15269000      -0.00954500
C       -2.13040000       3.68996000      10.24103000      -0.01045500      -0.04399600      -0.04185800
C        4.26080000       0.00000000      10.24104000      -0.03287400      -0.03105100      -0.04185000
C        2.13040000       3.68996000      10.20812000       0.12227700       0.21177900      -0.04743600
C        0.00000000       2.46002000      10.20796000      -0.23927800      -0.00008100      -0.04667000
C       -2.13040000       6.14998000      10.24089000       0.04895200       0.00924600      -0.03789300
C        4.26080000       2.46002000      10.23359000       0.18164300      -0.00010600      -0.00933800
C        2.13040000       6.14998000      10.24090000       0.04892100      -0.01659400      -0.03792100
C        2.13044000       1.23001000      10.20797000       0.11957000      -0.20725100      -0.04666900
C        0.00004000       4.91997000      10.23358000      -0.09091700       0.15726100      -0.00934300
C        6.39124000       1.23001000      10.24089000      -0.01646800       0.04701700      -0.03789700
C        4.26084000       4.91997000      10.24090000      -0.03883100       0.03406800      -0.03791700
C        7.10130000       2.46002000      10.23362000      -0.17875200      -0.00116000      -0.00957900
C       -3.55069000       6.14998000      10.24094000      -0.04567500       0.01157200      -0.04209800
C        2.84050000       2.46002000      10.20803000       0.24177000      -0.00058200      -0.04702300
C        0.71010000       6.14998000      10.24094000      -0.04567100      -0.01430200      -0.04206300
C        0.71015000       1.23001000      10.20802000      -0.12152700      -0.21050200      -0.04705000
C       -1.42025000       4.91997000      10.24094000       0.03410500       0.03322000      -0.04208600
C        4.97095000       1.23001000      10.24094000       0.01171600       0.04614400      -0.04207800
C        2.84055000       4.91997000      10.23363000       0.08930800       0.15468500      -0.00959000
C        2.84059000       0.00000000      10.23362000       0.08836700      -0.15537700      -0.00957400
C        0.71019000       3.68996000      10.20802000      -0.12138900       0.20909900      -0.04702400
C        7.10139000       0.00000000      10.24094000       0.03285900      -0.03377100      -0.04210200
C        4.97099000       3.68996000      10.24094000       0.01045000      -0.04670200      -0.04205900
Li       1.42018000       2.45987000      12.00000000       0.00010500       0.00014900       0.00000000
49
Lattice="8.52159977 0.0 0.0 -4.260799885 7.379921881 0.0 0.0 0.0 24.0" Properties=species:S:1:pos:R:3:forces:R:3 stress="-0.005840448473981378 3.2580677637110607e-06 -0.0 3.2580677637110607e-06 -0.00583668484397847 -0.0 -0.0 -0.0 0.0021421358640761412" free_energy=-447.88930807 energy=-447.8857644 pbc="T T T"
C        0.00000000       0.00000000      13.76916000      -0.08736700      -0.15132400       0.04301500
C       -2.13040000       3.68996000      13.76303000      -0.01057500      -0.04385600       0.03035900
C        4.26080000       0.00000000      13.76303000      -0.03269200      -0.03108500       0.03035400
C        2.13040000       3.68996000      13.79922000       0.12178500       0.21092800       0.04147900
C        0.00000000       2.46002000      13.79933000      -0.23899900      -0.00050900       0.04051700
C       -2.13040000       6.14998000      13.76290000       0.04788200       0.01225800       0.03327400
C        4.26080000       2.46002000      13.76928000       0.17934400      -0.00052700       0.04249100
C        2.13040000       6.14998000      13.76290000       0.04786600      -0.01332900       0.03339100
C        2.13044000       1.23001000      13.79933000       0.11905900      -0.20722500       0.04051500
C        0.00004000       4.91997000      13.76929000      -0.09013200       0.15505900       0.04249700
C        6.39124000       1.23001000      13.76291000      -0.01332500       0.04759600       0.03327500
C        4.26084000       4.91997000      13.76290000      -0.03547600       0.03478700       0.03338700
C        7.10130000       2.46002000      13.76927000      -0.17699000      -0.00152100       0.04076400
C       -3.55069000       6.14998000      13.76315000      -0.04541700       0.01107000       0.02639900
C        2.84050000       2.46002000      13.79929000       0.24097400      -0.00096400       0.04088900
C        0.71010000       6.14998000      13.76314000      -0.04540800      -0.01442400       0.02790400
C        0.71015000       1.23001000      13.79930000      -0.12151800      -0.21048600       0.04045600
C       -1.42025000       4.91997000      13.76315000       0.03338900       0.03232600       0.02808700
C        4.97095000       1.23001000      13.76314000       0.01130000       0.04507700       0.02808300
C        2.84055000       4.91997000      13.76926000       0.08799400       0.15240900       0.03934700
C        2.84059000       0.00000000      13.76926000       0.08717500      -0.15403400       0.04075900
C        0.71019000       3.68996000      13.79930000      -0.12132200       0.20821600       0.04089100