49
Lattice="8.52159977 0.0 0.0 -4.260799885 7.379921881 0.0 0.0 0.0 24.0" Properties=species:S:1:pos:R:3:forces:R:3 stress="-0.006324564887821386 3.208135690703995e-06 -0.0 3.208135690703995e-06 -0.006320838706873234 -0.0 -0.0 -0.0 0.0048142882001040365" free_energy=-447.94954082 energy=-447.94710535 pbc="T T T"
C        0.00000000       0.00000000      13.95000000      -0.08840900      -0.15313200      -0.03288800
C       -2.13040000       3.68996000      13.95000000      -0.01004000      -0.03412600       0.00125500
C        4.26080000       0.00000000      13.95000000      -0.02453500      -0.02575400       0.00125400
C        2.13040000       3.68996000      13.95000000       0.09598400       0.16624300       0.00995100
C        0.00000000       2.46002000      13.95000000      -0.18734000      -0.00054300       0.00855300
C       -2.13040000       6.14998000      13.95000000       0.03917500       0.00784300      -0.00007400
C        4.26080000       2.46002000      13.95000000       0.18140300      -0.00052000      -0.03421700
C        2.13040000       6.14998000      13.95000000       0.03917100      -0.00891500      -0.00007400
C        2.13044000       1.23001000      13.95000000       0.09320000      -0.16250800       0.00854200
C        0.00004000       4.91997000      13.95000000      -0.09115400       0.15684700      -0.03421800
C        6.39124000       1.23001000      13.95000000      -0.01279700       0.03784800      -0.00007300
C        4.26084000       4.91997000      13.95000000      -0.02730400       0.02946000      -0.00007500
C        7.10130000       2.46002000      13.95000000      -0.17907500      -0.00149100      -0.03398700
C       -3.55069000       6.14998000      13.95000000      -0.03684200       0.00689300       0.00015700
C        2.84050000       2.46002000      13.95000000       0.18966900      -0.00148300       0.00881600
C        0.71010000       6.14998000      13.95000000      -0.03684500      -0.00986300       0.00015700
C        0.71015000       1.23001000      13.95000000      -0.09538900      -0.16523700       0.00878400
C       -1.42025000       4.91997000      13.95000000       0.02512800       0.02677100       0.00015700
C        4.97095000       1.23001000      13.95000000       0.01061600       0.03514900       0.00015700
C        2.84055000       4.91997000      13.95000000       0.08899600       0.15415100      -0.03397900
C        2.84059000       0.00000000      13.95000000       0.08823800      -0.15581900      -0.03398700
C        0.71019000       3.68996000      13.95000000      -0.09611300       0.16352400       0.00882500
C        7.10139000       0.00000000      13.95000000       0.02438900      -0.02846600       0.00015800
C        4.97099000       3.68996000      13.95000000       0.00988200      -0.03684100       0.00015800
C        0.00000000       0.00000000      10.05000000      -0.08840900      -0.15313200       0.03288800
C       -2.13040000       3.68996000      10.05000000      -0.01004000      -0.03412600      -0.00125500
C        4.26080000       0.00000000      10.05000000      -0.02453500      -0.02575400      -0.00125400
C        2.13040000       3.68996000      10.05000000       0.09598400       0.16624300      -0.00995100
C        0.00000000       2.46002000      10.05000000      -0.18734000      -0.00054300      -0.00855300
C       -2.13040000       6.14998000      10.05000000       0.03917500       0.00784300       0.00007400
C        4.26080000       2.46002000      10.05000000       0.18140300      -0.00052000       0.03421700
C        2.13040000       6.14998000      10.05000000       0.03917100      -0.00891500       0.00007400
C        2.13044000       1.23001000      10.05000000       0.09320000      -0.16250800      -0.00854200
C        0.00004000       4.91997000      10.05000000      -0.09115400       0.15684700       0.03421800
C        6.39124000       1.23001000      10.05000000      -0.01279700       0.03784800       0.00007300
C        4.26084000       4.91997000      10.05000000      -0.02730400       0.02946000       0.00007500
C        7.10130000       2.46002000      10.05000000      -0.17907500      -0.00149100       0.03398700
C       -3.55069000       6.14998000      10.05000000      -0.03684200       0.00689300      -0.00015700
C        2.84050000       2.46002000      10.05000000       0.18966900      -0.00148300      -0.00881600
C        0.71010000       6.14998000      10.05000000      -0.03684500      -0.00986300      -0.00015700
C        0.71015000       1.23001000      10.05000000      -0.09538900      -0.16523700      -0.00878400
C       -1.42025000       4.91997000      10.05000000       0.02512800       0.02677100      -0.00015700
C        4.97095000       1.23001000      10.05000000       0.01061600       0.03514900      -0.00015700
C        2.84055000       4.91997000      10.05000000       0.08899600       0.15415100       0.03397900
C        2.84059000       0.00000000      10.05000000       0.08823800      -0.15581900       0.03398700
C        0.71019000       3.68996000      10.05000000      -0.09611300       0.16352400      -0.00882500
C        7.10139000       0.00000000      10.05000000       0.02438900      -0.02846600      -0.00015800
C        4.97099000       3.68996000      10.05000000       0.00988200      -0.03684100      -0.00015800
Li       1.42025000       2.46002000      12.00000000      -0.00001600      -0.00006300      -0.00000000
49
Lattice="8.52159977 0.0 0.0 -4.260799885 7.379921881 0.0 0.0 0.0 24.0" Properties=species:S:1:pos:R:3:forces:R:3 stress="-0.006326218887739745 3.220618708955761e-06 -0.0 3.220618708955761e-06 -0.0063224989483007185 -0.0 -0.0 -0.0 0.004817390230139601" free_energy=-447.95004217 energy=-447.947605 pbc="T T T"
C        0.00000000       0.00000000      13.94841000      -0.08840200      -0.15311800      -0.01329600
C       -2.13040000       3.68996000      13.95006000      -0.01004900      -0.03404400      -0.00644500
C        4.26080000       0.00000000      13.95006000      -0.02445800      -0.02572100      -0.00644600
C        2.13040000       3.68996000      13.95048000       0.09597800       0.16622300       0.00195400
C        0.00000000       2.46002000      13.95041000      -0.18733500      -0.00054900       0.00125200
C       -2.13040000       6.14998000      13.95000000       0.03910700       0.00778500      -0.00710200
C        4.26080000       2.46002000      13.94835000       0.18139200      -0.00052000      -0.01393800
C        2.13040000       6.14998000      13.95000000       0.03909500      -0.00885100      -0.00709000
C        2.13044000       1.23001000      13.95041000       0.09319500      -0.16250100       0.00124500
C        0.00004000       4.91997000      13.94835000      -0.09115200       0.15684100      -0.01393500
C        6.39124000       1.23001000      13.95000000      -0.01281200       0.03776100      -0.00710200
C        4.26084000       4.91997000      13.95000000      -0.02721300       0.02942900      -0.00709100
C        7.10130000       2.46002000      13.94836000      -0.17909600      -0.00144100      -0.01361100
C       -3.55069000       6.14998000      13.95001000      -0.03677400       0.00683100      -0.00677000
C        2.84050000       2.46002000      13.95043000       0.18966100      -0.00148100       0.00157000
C        0.71010000       6.14998000      13.95001000      -0.03677400      -0.00980700      -0.00677000
C        0.71015000       1.23001000      13.95042000      -0.09538100      -0.16522000       0.00156300
C       -1.42025000       4.91997000      13.95001000       0.02504800       0.02674200      -0.00677200
C        4.97095000       1.23001000      13.95001000       0.01063200       0.03506200      -0.00677300
C        2.84055000       4.91997000      13.94836000       0.08895600       0.15407600      -0.01357900
C        2.84059000       0.00000000      13.94836000       0.08829400      -0.15581000      -0.01361500
C        0.71019000       3.68996000      13.95043000      -0.09610900       0.16352000       0.00157800
C        7.10139000       0.00000000      13.95001000       0.02430200      -0.02843500      -0.00676900
C        4.97099000       3.68996000      13.95001000       0.00989400      -0.03675100      -0.00676900
C        0.00000000       0.00000000      10.05159000      -0.08840200      -0.15311800       0.01329600
C       -2.13040000       3.68996000      10.04994000      -0.01004900      -0.03404400       0.00644500
C        4.26080000       0.00000000      10.04994000      -0.02445800      -0.02572100       0.00644600
C        2.13040000       3.68996000      10.04952000       0.09597800       0.16622300      -0.00195400
C        0.00000000       2.46002000      10.04959000      -0.18733500      -0.00054900      -0.00125200
C       -2.13040000       6.14998000      10.05000000       0.03910700       0.00778500       0.00710200
C        4.26080000       2.46002000      10.05165000       0.18139200      -0.00052000       0.01393800
C        2.13040000       6.14998000      10.05000000       0.03909500      -0.00885100       0.00709000
C        2.13044000       1.23001000      10.04959000       0.09319500      -0.16250100      -0.00124500
C        0.00004000       4.91997000      10.05165000      -0.09115200       0.15684100       0.01393500
C        6.39124000       1.23001000      10.05000000      -0.01281200       0.03776100       0.00710200
C        4.26084000       4.91997000      10.05000000      -0.02721300       0.02942900       0.00709100
C        7.10130000       2.46002000      10.05164000      -0.17909600      -0.00144100       0.01361100
C       -3.55069000       6.14998000      10.04999000      -0.03677400       0.00683100       0.00677000
C        2.84050000       2.46002000      10.04957000       0.18966100      -0.00148100      -0.00157000
C        0.71010000       6.14998000      10.04999000      -0.03677400      -0.00980700       0.00677000
C        0.71015000       1.23001000      10.04958000      -0.09538100      -0.16522000      -0.00156300
C       -1.42025000       4.91997000      10.04999000       0.02504800       0.02674200       0.00677200
C        4.97095000       1.23001000      10.04999000       0.01063200       0.03506200       0.00677300
C        2.84055000       4.91997000      10.05164000       0.08895600       0.15407600       0.01357900
C        2.84059000       0.00000000      10.05164000       0.08829400      -0.15581000       0.01361500
C        0.71019000       3.68996000      10.04957000      -0.09610900       0.16352000      -0.00157800
C        7.10139000       0.00000000      10.04999000       0.02430200      -0.02843500       0.00676900
C        4.97099000       3.68996000      10.04999000       0.00989400      -0.03675100       0.00676900
Li       1.42025000       2.46002000      12.00000000      -0.00000100      -0.00003900       0.00000000
49
Lattice="8.52159977 0.0 0.0 -4.260799885 7.379921881 0.0 0.0 0.0 24.0" Properties=species:S:1:pos:R:3:forces:R:3 stress="-0.006326674517905936 3.226860218081644e-06 -0.0 3.226860218081644e-06 -0.006322948336957784 -0.0 -0.0 -0.0 0.004814787520834108" free_energy=-447.95024868 energy=-447.9478074 pbc="T T T"
C        0.00000000       0.00000000      13.94755000      -0.08840300      -0.15312000      -0.00719700
C       -2.13040000       3.68996000      13.94964000      -0.01006000      -0.03402400      -0.00972700
C        4.26080000       0.00000000      13.94964000      -0.02443600      -0.02572100      -0.00972900
C        2.13040000       3.68996000      13.95061000       0.09602400       0.16630400      -0.00125300
C        0.00000000       2.46002000      13.95049000      -0.18743200      -0.00055200      -0.00151700
C       -2.13040000       6.14998000      13.94954000       0.03909500       0.00776200      -0.00996800
C        4.26080000       2.46002000      13.94745000       0.18139600      -0.00051900      -0.00741500
C        2.13040000       6.14998000      13.94954000       0.03907900      -0.00882400      -0.00994700
C        2.13044000       1.23001000      13.95049000       0.09324100      -0.16258800      -0.00152300
C        0.00004000       4.91997000      13.94745000      -0.09115300       0.15684500      -0.00741100
C        6.39124000       1.23001000      13.94954000      -0.01282500       0.03773800      -0.00996600
C        4.26084000       4.91997000      13.94954000      -0.02718100       0.02942800      -0.00994800
C        7.10130000       2.46002000      13.94748000      -0.17912200      -0.00141300      -0.00744100
C       -3.55069000       6.14998000      13.94957000      -0.03676700       0.00681800      -0.00999800
C        2.84050000       2.46002000      13.95053000       0.18975800      -0.00147800      -0.00152600
C        0.71010000       6.14998000      13.94957000      -0.03676700      -0.00977300      -0.00998900
C        0.71015000       1.23001000      13.95052000      -0.09542800      -0.16530200      -0.00153200
C       -1.42025000       4.91997000      13.94957000       0.02501600       0.02673000      -0.00999600
C        4.97095000       1.23001000      13.94957000       0.01063900       0.03502800      -0.00999800
C        2.84055000       4.91997000      13.94748000       0.08894100       0.15404900      -0.00740800
C        2.84059000       0.00000000      13.94748000       0.08833200      -0.15582000      -0.00744400
C        0.71019000       3.68996000      13.95053000      -0.09615500       0.16360600      -0.00152000
C        7.10139000       0.00000000      13.94957000       0.02428800      -0.02843500      -0.00999700
C        4.97099000       3.68996000      13.94957000       0.00992000      -0.03672700      -0.00999000
C        0.00000000       0.00000000      10.05245000      -0.08840300      -0.15312000       0.00719700
C       -2.13040000       3.68996000      10.05036000      -0.01006000      -0.03402400       0.00972700
C        4.26080000       0.00000000      10.05036000      -0.02443600      -0.02572100       0.00972900
C        2.13040000       3.68996000      10.04939000       0.09602400       0.16630400       0.00125300
C        0.00000000       2.46002000      10.04951000      -0.18743200      -0.00055200       0.00151700
C       -2.13040000       6.14998000      10.05046000       0.03909500       0.00776200       0.00996800
C        4.26080000       2.46002000      10.05255000       0.18139600      -0.00051900       0.00741500
C        2.13040000       6.14998000      10.05046000       0.03907900      -0.00882400       0.00994700
C        2.13044000       1.23001000      10.04951000       0.09324100      -0.16258800       0.00152300
C        0.00004000       4.91997000      10.05255000      -0.09115300       0.15684500       0.00741100
C        6.39124000       1.23001000      10.05046000      -0.01282500       0.03773800       0.00996600
C        4.26084000       4.91997000      10.05046000      -0.02718100       0.02942800       0.00994800
C        7.10130000       2.46002000      10.05252000      -0.17912200      -0.00141300       0.00744100
C       -3.55069000       6.14998000      10.05043000      -0.03676700       0.00681800       0.00999800
C        2.84050000       2.46002000      10.04947000       0.18975800      -0.00147800       0.00152600
C        0.71010000       6.14998000      10.05043000      -0.03676700      -0.00977300       0.00998900
C        0.71015000       1.23001000      10.04948000      -0.09542800      -0.16530200       0.00153200
C       -1.42025000       4.91997000      10.05043000       0.02501600       0.02673000       0.00999600
C        4.97095000       1.23001000      10.05043000       0.01063900       0.03502800       0.00999800
C        2.84055000       4.91997000      10.05252000       0.08894100       0.15404900       0.00740800
C        2.84059000       0.00000000      10.05252000       0.08833200      -0.15582000       0.00744400
C        0.71019000       3.68996000      10.04947000      -0.09615500       0.16360600       0.00152000
C        7.10139000       0.00000000      10.05043000       0.02428800      -0.02843500       0.00999700
C        4.97099000       3.68996000      10.05043000       0.00992000      -0.03672700       0.00999000
Li       1.42025000       2.46002000      12.00000000       0.00000600      -0.00002400       0.00000000
