49
Lattice="8.52159977 0.0 0.0 -4.260799885 7.379921881 0.0 0.0 0.0 24.0" Properties=species:S:1:pos:R:3:forces:R:3 stress="-0.006471059348514992 3.201894181578111e-06 -0.0 3.201894181578111e-06 -0.006467345650585092 -0.0 -0.0 -0.0 0.005203683471449642" free_energy=-447.89299678 energy=-447.89114775 pbc="T T T"
C        0.00000000       0.00000000      14.00000000      -0.08736500      -0.15131900      -0.04553400
C       -2.13040000       3.68996000      14.00000000      -0.01044700      -0.03157800      -0.01284000
C        4.26080000       0.00000000      14.00000000      -0.02212300      -0.02483500      -0.01284100
C        2.13040000       3.68996000      14.00000000       0.09152900       0.15851600      -0.02626100
C        0.00000000       2.46002000      14.00000000      -0.17839900      -0.00053900      -0.02489800
C       -2.13040000       6.14998000      14.00000000       0.03717000       0.00621300      -0.01148900
C        4.26080000       2.46002000      14.00000000       0.17930300      -0.00052200      -0.04416600
C        2.13040000       6.14998000      14.00000000       0.03716400      -0.00728300      -0.01148900
C        2.13044000       1.23001000      14.00000000       0.08873500      -0.15475900      -0.02490300
C        0.00004000       4.91997000      14.00000000      -0.09010700       0.15502900      -0.04416500
C        6.39124000       1.23001000      14.00000000      -0.01320400       0.03529900      -0.01148800
C        4.26084000       4.91997000      14.00000000      -0.02488900       0.02854000      -0.01149000
C        7.10130000       2.46002000      14.00000000      -0.17683200      -0.00176200      -0.04430400
C       -3.55069000       6.14998000      14.00000000      -0.03468800       0.00499200      -0.01162200
C        2.84050000       2.46002000      14.00000000       0.18089200      -0.00175300      -0.02501600
C        0.71010000       6.14998000      14.00000000      -0.03468600      -0.00850100      -0.01162100
C        0.71015000       1.23001000      14.00000000      -0.09075500      -0.15720700      -0.02504600
C       -1.42025000       4.91997000      14.00000000       0.02286500       0.02611000      -0.01162300
C        4.97095000       1.23001000      14.00000000       0.01117700       0.03285900      -0.01162400
C        2.84055000       4.91997000      14.00000000       0.08809800       0.15259100      -0.04430300
C        2.84059000       0.00000000      14.00000000       0.08688500      -0.15401000      -0.04430500
C        0.71019000       3.68996000      14.00000000      -0.09196400       0.15578900      -0.02501000
C        7.10139000       0.00000000      14.00000000       0.02166700      -0.02754700      -0.01162100
C        4.97099000       3.68996000      14.00000000       0.00998100      -0.03429100      -0.01162200
C        0.00000000       0.00000000      10.00000000      -0.08736500      -0.15131900       0.04553400
C       -2.13040000       3.68996000      10.00000000      -0.01044700      -0.03157800       0.01284000
C        4.26080000       0.00000000      10.00000000      -0.02212300      -0.02483500       0.01284100
C        2.13040000       3.68996000      10.00000000       0.09152900       0.15851600       0.02626100
C        0.00000000       2.46002000      10.00000000      -0.17839900      -0.00053900       0.02489800
C       -2.13040000       6.14998000      10.00000000       0.03717000       0.00621300       0.01148900
C        4.26080000       2.46002000      10.00000000       0.17930300      -0.00052200       0.04416600
C        2.13040000       6.14998000      10.00000000       0.03716400      -0.00728300       0.01148900
C        2.13044000       1.23001000      10.00000000       0.08873500      -0.15475900       0.02490300
C        0.00004000       4.91997000      10.00000000      -0.09010700       0.15502900       0.04416500
C        6.39124000       1.23001000      10.00000000      -0.01320400       0.03529900       0.01148800
C        4.26084000       4.91997000      10.00000000      -0.02488900       0.02854000       0.01149000
C        7.10130000       2.46002000      10.00000000      -0.17683200      -0.00176200       0.04430400
C       -3.55069000       6.14998000      10.00000000      -0.03468800       0.00499200       0.01162200
C        2.84050000       2.46002000      10.00000000       0.18089200      -0.00175300       0.02501600
C        0.71010000       6.14998000      10.00000000      -0.03468600      -0.00850100       0.01162100
C        0.71015000       1.23001000      10.00000000      -0.09075500      -0.15720700       0.02504600
C       -1.42025000       4.91997000      10.00000000       0.02286500       0.02611000       0.01162300
C        4.97095000       1.23001000      10.00000000       0.01117700       0.03285900       0.01162400
C        2.84055000       4.91997000      10.00000000       0.08809800       0.15259100       0.04430300
C        2.84059000       0.00000000      10.00000000       0.08688500      -0.15401000       0.04430500
C        0.71019000       3.68996000      10.00000000      -0.09196400       0.15578900       0.02501000
C        7.10139000       0.00000000      10.00000000       0.02166700      -0.02754700       0.01162100
C        4.97099000       3.68996000      10.00000000       0.00998100      -0.03429100       0.01162200
Li       1.42025000       2.46002000      12.00000000      -0.00002100      -0.00006200      -0.00000000
49
Lattice="8.52159977 0.0 0.0 -4.260799885 7.379921881 0.0 0.0 0.0 24.0" Properties=species:S:1:pos:R:3:forces:R:3 stress="-0.006470428956093279 3.201894181578111e-06 -0.0 3.201894181578111e-06 -0.006466733982690755 -0.0 -0.0 -0.0 0.005192792038024975" free_energy=-447.89459825 energy=-447.89274207 pbc="T T T"
C        0.00000000       0.00000000      13.99780000      -0.08740200      -0.15138600      -0.03091900
C       -2.13040000       3.68996000      13.99938000      -0.01041900      -0.03161700      -0.01897600
C        4.26080000       0.00000000      13.99938000      -0.02217200      -0.02482800      -0.01897600
C        2.13040000       3.68996000      13.99873000       0.09167600       0.15877100      -0.03177600
C        0.00000000       2.46002000      13.99880000      -0.17868900      -0.00053400      -0.03109600
C       -2.13040000       6.14998000      13.99945000       0.03719000       0.00626600      -0.01830500
C        4.26080000       2.46002000      13.99787000       0.17936600      -0.00052400      -0.03022900
C        2.13040000       6.14998000      13.99945000       0.03719000      -0.00734000      -0.01830200
C        2.13044000       1.23001000      13.99880000       0.08888700      -0.15500800      -0.03110100
C        0.00004000       4.91997000      13.99787000      -0.09014300       0.15508600      -0.03022600
C        6.39124000       1.23001000      13.99945000      -0.01316900       0.03534100      -0.01830500
C        4.26084000       4.91997000      13.99945000      -0.02495200       0.02853500      -0.01830200
C        7.10130000       2.46002000      13.99786000      -0.17686800      -0.00181800      -0.03061100
C       -3.55069000       6.14998000      13.99944000      -0.03470000       0.00503400      -0.01868700
C        2.84050000       2.46002000      13.99879000       0.18120600      -0.00180000      -0.03144500
C        0.71010000       6.14998000      13.99944000      -0.03470100      -0.00856500      -0.01869000
C        0.71015000       1.23001000      13.99879000      -0.09088000      -0.15742400      -0.03149600
C       -1.42025000       4.91997000      13.99944000       0.02292900       0.02611500      -0.01868200
C        4.97095000       1.23001000      13.99944000       0.01115000       0.03291300      -0.01868200
C        2.84055000       4.91997000      13.99786000       0.08817400       0.15272100      -0.03061600
C        2.84059000       0.00000000      13.99786000       0.08685400      -0.15406900      -0.03061300
C        0.71019000       3.68996000      13.99879000      -0.09215800       0.15603700      -0.03144000
C        7.10139000       0.00000000      13.99944000       0.02170900      -0.02753700      -0.01868600
C        4.97099000       3.68996000      13.99944000       0.00993400      -0.03433400      -0.01868900
C        0.00000000       0.00000000      10.00220000      -0.08740200      -0.15138600       0.03091900
C       -2.13040000       3.68996000      10.00062000      -0.01041900      -0.03161700       0.01897600
C        4.26080000       0.00000000      10.00062000      -0.02217200      -0.02482800       0.01897600
C        2.13040000       3.68996000      10.00127000       0.09167600       0.15877100       0.03177600
C        0.00000000       2.46002000      10.00120000      -0.17868900      -0.00053400       0.03109600
C       -2.13040000       6.14998000      10.00055000       0.03719000       0.00626600       0.01830500
C        4.26080000       2.46002000      10.00213000       0.17936600      -0.00052400       0.03022900
C        2.13040000       6.14998000      10.00055000       0.03719000      -0.00734000       0.01830200
C        2.13044000       1.23001000      10.00120000       0.08888700      -0.15500800       0.03110100
C        0.00004000       4.91997000      10.00213000      -0.09014300       0.15508600       0.03022600
C        6.39124000       1.23001000      10.00055000      -0.01316900       0.03534100       0.01830500
C        4.26084000       4.91997000      10.00055000      -0.02495200       0.02853500       0.01830200
C        7.10130000       2.46002000      10.00214000      -0.17686800      -0.00181800       0.03061100
C       -3.55069000       6.14998000      10.00056000      -0.03470000       0.00503400       0.01868700
C        2.84050000       2.46002000      10.00121000       0.18120600      -0.00180000       0.03144500
C        0.71010000       6.14998000      10.00056000      -0.03470100      -0.00856500       0.01869000
C        0.71015000       1.23001000      10.00121000      -0.09088000      -0.15742400       0.03149600
C       -1.42025000       4.91997000      10.00056000       0.02292900       0.02611500       0.01868200
C        4.97095000       1.23001000      10.00056000       0.01115000       0.03291300       0.01868200
C        2.84055000       4.91997000      10.00214000       0.08817400       0.15272100       0.03061600
C        2.84059000       0.00000000      10.00214000       0.08685400      -0.15406900       0.03061300
C        0.71019000       3.68996000      10.00121000      -0.09215800       0.15603700       0.03144000
C        7.10139000       0.00000000      10.00056000       0.02170900      -0.02753700       0.01868600
C        4.97099000       3.68996000      10.00056000       0.00993400      -0.03433400       0.01868900
Li       1.42025000       2.46002000      12.00000000      -0.00002600      -0.00007100       0.00000000
49
Lattice="8.52159977 0.0 0.0 -4.260799885 7.379921881 0.0 0.0 0.0 24.0" Properties=species:S:1:pos:R:3:forces:R:3 stress="-0.006468537778828136 3.1956526724522288e-06 -0.0 3.1956526724522288e-06 -0.006464842805425613 -0.0 -0.0 -0.0 0.0051796224537693615" free_energy=-447.89606793 energy=-447.89420373 pbc="T T T"
C        0.00000000       0.00000000      13.99642000      -0.08744400      -0.15145800      -0.02883700
C       -2.13040000       3.68996000      13.99853000      -0.01038200      -0.03170500      -0.02209700
C        4.26080000       0.00000000      13.99853000      -0.02226600      -0.02484100      -0.02209800
C        2.13040000       3.68996000      13.99731000       0.09180400       0.15899300      -0.03444200
C        0.00000000       2.46002000      13.99741000      -0.17894200      -0.00053000      -0.03408400
C       -2.13040000       6.14998000      13.99863000       0.03725000       0.00634400      -0.02173600
C        4.26080000       2.46002000      13.99652000       0.17944400      -0.00052400      -0.02847100
C        2.13040000       6.14998000      13.99863000       0.03725200      -0.00742300      -0.02173500
C        2.13044000       1.23001000      13.99741000       0.08901600      -0.15522500      -0.03408800
C        0.00004000       4.91997000      13.99652000      -0.09018100       0.15515300      -0.02846900
C        6.39124000       1.23001000      13.99863000      -0.01313000       0.03543200      -0.02173500
C        4.26084000       4.91997000      13.99863000      -0.02505500       0.02854700      -0.02173500
C        7.10130000       2.46002000      13.99649000      -0.17692400      -0.00185100      -0.02853800
C       -3.55069000       6.14998000      13.99860000      -0.03474900       0.00509300      -0.02179200
C        2.84050000       2.46002000      13.99738000       0.18148100      -0.00183900      -0.03414400
C        0.71010000       6.14998000      13.99860000      -0.03475000      -0.00866300      -0.02179500
C        0.71015000       1.23001000      13.99738000      -0.09098500      -0.15760700      -0.03418300
C       -1.42025000       4.91997000      13.99860000       0.02303800       0.02614700      -0.02178900
C        4.97095000       1.23001000      13.99860000       0.01112300       0.03302400      -0.02179000
C        2.84055000       4.91997000      13.99649000       0.08823300       0.15282300      -0.02854200
C        2.84059000       0.00000000      13.99649000       0.08685300      -0.15413500      -0.02854000
C        0.71019000       3.68996000      13.99739000      -0.09232900       0.15625600      -0.03413900
C        7.10139000       0.00000000      13.99860000       0.02178500      -0.02754900      -0.02179100
C        4.97099000       3.68996000      13.99860000       0.00987300      -0.03442600      -0.02179500
C        0.00000000       0.00000000      10.00358000      -0.08744400      -0.15145800       0.02883700
C       -2.13040000       3.68996000      10.00147000      -0.01038200      -0.03170500       0.02209700
C        4.26080000       0.00000000      10.00147000      -0.02226600      -0.02484100       0.02209800
C        2.13040000       3.68996000      10.00269000       0.09180400       0.15899300       0.03444200
C        0.00000000       2.46002000      10.00259000      -0.17894200      -0.00053000       0.03408400
C       -2.13040000       6.14998000      10.00137000       0.03725000       0.00634400       0.02173600
C        4.26080000       2.46002000      10.00348000       0.17944400      -0.00052400       0.02847100
C        2.13040000       6.14998000      10.00137000       0.03725200      -0.00742300       0.02173500
C        2.13044000       1.23001000      10.00259000       0.08901600      -0.15522500       0.03408800
C        0.00004000       4.91997000      10.00348000      -0.09018100       0.15515300       0.02846900
C        6.39124000       1.23001000      10.00137000      -0.01313000       0.03543200       0.02173500
C        4.26084000       4.91997000      10.00137000      -0.02505500       0.02854700       0.02173500
C        7.10130000       2.46002000      10.00351000      -0.17692400      -0.00185100       0.02853800
C       -3.55069000       6.14998000      10.00140000      -0.03474900       0.00509300       0.02179200
C        2.84050000       2.46002000      10.00262000       0.18148100      -0.00183900       0.03414400
C        0.71010000       6.14998000      10.00140000      -0.03475000      -0.00866300       0.02179500
C        0.71015000       1.23001000      10.00262000      -0.09098500      -0.15760700       0.03418300
C       -1.42025000       4.91997000      10.00140000       0.02303800       0.02614700       0.02178900
C        4.97095000       1.23001000      10.00140000       0.01112300       0.03302400       0.02179000
C        2.84055000       4.91997000      10.00351000       0.08823300       0.15282300       0.02854200
C        2.84059000       0.00000000      10.00351000       0.08685300      -0.15413500       0.02854000
C        0.71019000       3.68996000      10.00261000      -0.09232900       0.15625600       0.03413900
C        7.10139000       0.00000000      10.00140000       0.02178500      -0.02754900       0.02179100
C        4.97099000       3.68996000      10.00140000       0.00987300      -0.03442600       0.02179500
Li       1.42025000       2.46002000      12.00000000      -0.00002800      -0.00007400      -0.00000000
49
Lattice="8.52159977 0.0 0.0 -4.260799885 7.379921881 0.0 0.0 0.0 24.0" Properties=species:S:1:pos:R:3:forces:R:3 stress="-0.006475409680375734 3.1956526724522288e-06 -0.0 3.1956526724522288e-06 -0.006471714706973212 -0.0 -0.0 -0.0 0.005235977039666962" free_energy=-447.88998262 energy=-447.88815412 pbc="T T T"
C        0.00000000       0.00000000      14.00213000      -0.08726000      -0.15114000      -0.02544400
C       -2.13040000       3.68996000      14.00300000      -0.01053700      -0.03128600      -0.01231300
C        4.26080000       0.00000000      14.00300000      -0.02182600      -0.02476600      -0.01231300
C        2.13040000       3.68996000      14.00423000       0.09126300       0.15805600      -0.02715700
C        0.00000000       2.46002000      14.00426000      -0.17786500      -0.00054000      -0.02606700
C       -2.13040000       6.14998000      14.00303000       0.03696200       0.00599300      -0.01125900
C        4.26080000       2.46002000      14.00216000       0.17909700      -0.00052200      -0.02441000
C        2.13040000       6.14998000      14.00303000       0.03695900      -0.00706600      -0.01125500
C        2.13044000       1.23001000      14.00426000       0.08846900      -0.15429700      -0.02607400
C        0.00004000       4.91997000      14.00216000      -0.09000700       0.15485400      -0.02441000
C        6.39124000       1.23001000      14.00303000      -0.01329000       0.03500700      -0.01125900
C        4.26084000       4.91997000      14.00303000      -0.02459900       0.02847200      -0.01125500
C        7.10130000       2.46002000      14.00214000      -0.17664900      -0.00170900      -0.02424500
C       -3.55069000       6.14998000      14.00301000      -0.03452200       0.00484700      -0.01106000
C        2.84050000       2.46002000      14.00425000       0.18029600      -0.00165300      -0.02599500
C        0.71010000       6.14998000      14.00301000      -0.03452400      -0.00820600      -0.01106400
C        0.71015000       1.23001000      14.00425000      -0.09055000      -0.15685400      -0.02609700
C       -1.42025000       4.91997000      14.00301000       0.02253000       0.02596700      -0.01104900
C        4.97095000       1.23001000      14.00301000       0.01122100       0.03249300      -0.01105000
C        2.84055000       4.91997000      14.00214000       0.08797000       0.15236700      -0.02425700
C        2.84059000       0.00000000      14.00214000       0.08683800      -0.15382500      -0.02424600
C        0.71019000       3.68996000      14.00425000      -0.09157500       0.15532300      -0.02598800
C        7.10139000       0.00000000      14.00301000       0.02145800      -0.02747700      -0.01106000
C        4.97099000       3.68996000      14.00301000       0.01015500      -0.03400100      -0.01106400
C        0.00000000       0.00000000       9.99787000      -0.08726000      -0.15114000       0.02544400
C       -2.13040000       3.68996000       9.99700000      -0.01053700      -0.03128600       0.01231300
C        4.26080000       0.00000000       9.99700000      -0.02182600      -0.02476600       0.01231300
C        2.13040000       3.68996000       9.99577000       0.09126300       0.15805600       0.02715700
C        0.00000000       2.46002000       9.99574000      -0.17786500      -0.00054000       0.02606700
C       -2.13040000       6.14998000       9.99697000       0.03696200       0.00599300       0.01125900
C        4.26080000       2.46002000       9.99784000       0.17909700      -0.00052200       0.02441000
C        2.13040000       6.14998000       9.99697000       0.03695900      -0.00706600       0.01125500
C        2.13044000       1.23001000       9.99574000       0.08846900      -0.15429700       0.02607400
C        0.00004000       4.91997000       9.99784000      -0.09000700       0.15485400       0.02441000
C        6.39124000       1.23001000       9.99697000      -0.01329000       0.03500700       0.01125900
C        4.26084000       4.91997000       9.99697000      -0.02459900       0.02847200       0.01125500
C        7.10130000       2.46002000       9.99786000      -0.17664900      -0.00170900       0.02424500
C       -3.55069000       6.14998000       9.99699000      -0.03452200       0.00484700       0.01106000
C        2.84050000       2.46002000       9.99575000       0.18029600      -0.00165300       0.02599500
C        0.71010000       6.14998000       9.99699000      -0.03452400      -0.00820600       0.01106400
C        0.71015000       1.23001000       9.99575000      -0.09055000      -0.15685400       0.02609700
C       -1.42025000       4.91997000       9.99699000       0.02253000       0.02596700       0.01104900
C        4.97095000       1.23001000       9.99699000       0.01122100       0.03249300       0.01105000
C        2.84055000       4.91997000       9.99786000       0.08797000       0.15236700       0.02425700
C        2.84059000       0.00000000       9.99786000       0.08683800      -0.15382500       0.02424600
C        0.71019000       3.68996000       9.99575000      -0.09157500       0.15532300       0.02598800
C        7.10139000       0.00000000       9.99699000       0.02145800      -0.02747700       0.01106000
C        4.97099000       3.68996000       9.99699000       0.01015500      -0.03400100       0.01106400
Li       1.42026000       2.46003000      12.00000000      -0.00002700      -0.00007300      -0.00000000
49
Lattice="8.52159977 0.0 0.0 -4.260799885 7.379921881 0.0 0.0 0.0 24.0" Properties=species:S:1:pos:R:3:forces:R:3 stress="-0.00601352552204212 3.183169654200462e-06 -0.0 3.183169654200462e-06 -0.006009849273166975 -0.0 -0.0 -0.0 0.005754658931046112" free_energy=-447.88072472 energy=-447.8789423 pbc="T T T"
C        0.00000000       0.00000000      14.01157000      -0.08693300      -0.15057400      -0.02773300
C       -2.13040000       3.68996000      14.01137000      -0.01078100      -0.03060900      -0.01670700
C        4.26080000       0.00000000      14.01138000      -0.02111800      -0.02463800      -0.01670500
C        2.13040000       3.68996000      14.01613000       0.09043300       0.15661600      -0.03479800
C        0.00000000       2.46002000      14.01616000      -0.17621300      -0.00054300      -0.03378800
C       -2.13040000       6.14998000      14.01139000       0.03649000       0.00544800      -0.01559200
C        4.26080000       2.46002000      14.01159000       0.17844300      -0.00051700      -0.02663400
C        2.13040000       6.14998000      14.01140000       0.03648700      -0.00651100      -0.01559600
C        2.13044000       1.23001000      14.01616000       0.08764200      -0.15286700      -0.03379600
C        0.00004000       4.91997000      14.01159000      -0.08967700       0.15429200      -0.02663300
C        6.39124000       1.23001000      14.01139000      -0.01352600       0.03432600      -0.01559300
C        4.26084000       4.91997000      14.01140000      -0.02388300       0.02834000      -0.01559600
C        7.10130000       2.46002000      14.01162000      -0.17616000      -0.00144700      -0.02769700
C       -3.55069000       6.14998000      14.01142000      -0.03418600       0.00452900      -0.01667800
C        2.84050000       2.46002000      14.01617000       0.17844200      -0.00131500      -0.03467600
C        0.71010000       6.14998000      14.01142000      -0.03419000      -0.00742200      -0.01672100
C        0.71015000       1.23001000      14.01618000      -0.08992000      -0.15576400      -0.03476300
C       -1.42025000       4.91997000      14.01142000       0.02168500       0.02560400      -0.01669700
C        4.97095000       1.23001000      14.01142000       0.01132800       0.03158000      -0.01669500
C        2.84055000       4.91997000      14.01162000       0.08750700       0.15156500      -0.02773100
C        2.84059000       0.00000000      14.01162000       0.08682000      -0.15326900      -0.02769800
C        0.71019000       3.68996000      14.01617000      -0.09035500       0.15388700      -0.03466900
C        7.10139000       0.00000000      14.01142000       0.02101400      -0.02734500      -0.01667900
C        4.97099000       3.68996000      14.01142000       0.01066800      -0.03332000      -0.01672000
C        0.00000000       0.00000000       9.98843000      -0.08693300      -0.15057400       0.02773300
C       -2.13040000       3.68996000       9.98863000      -0.01078100      -0.03060900       0.01670700
C        4.26080000       0.00000000       9.98862000      -0.02111800      -0.02463800       0.01670500
C        2.13040000       3.68996000       9.98387000       0.09043300       0.15661600       0.03479800
C        0.00000000       2.46002000       9.98384000      -0.17621300      -0.00054300       0.03378800
C       -2.13040000       6.14998000       9.98861000       0.03649000       0.00544800       0.01559200
C        4.26080000       2.46002000       9.98841000       0.17844300      -0.00051700       0.02663400
C        2.13040000       6.14998000       9.98860000       0.03648700      -0.00651100       0.01559600
C        2.13044000       1.23001000       9.98384000       0.08764200      -0.15286700       0.03379600
C        0.00004000       4.91997000       9.98841000      -0.08967700       0.15429200       0.02663300
C        6.39124000       1.23001000       9.98861000      -0.01352600       0.03432600       0.01559300
C        4.26084000       4.91997000       9.98860000      -0.02388300       0.02834000       0.01559600
C        7.10130000       2.46002000       9.98838000      -0.17616000      -0.00144700       0.02769700
C       -3.55069000       6.14998000       9.98858000      -0.03418600       0.00452900       0.01667800
C        2.84050000       2.46002000       9.98383000       0.17844200      -0.00131500       0.03467600
C        0.71010000       6.14998000       9.98858000      -0.03419000      -0.00742200       0.01672100
C        0.71015000       1.23001000       9.98382000      -0.08992000      -0.15576400       0.03476300
C       -1.42025000       4.91997000       9.98858000       0.02168500       0.02560400       0.01669700
C        4.97095000       1.23001000       9.98858000       0.01132800       0.03158000       0.01669500
C        2.84055000       4.91997000       9.98838000       0.08750700       0.15156500       0.02773100
C        2.84059000       0.00000000       9.98838000       0.08682000      -0.15326900       0.02769800
C        0.71019000       3.68996000       9.98383000      -0.09035500       0.15388700       0.03466900
C        7.10139000       0.00000000       9.98858000       0.02101400      -0.02734500       0.01667900
C        4.97099000       3.68996000       9.98858000       0.01066800      -0.03332000       0.01672000
Li       1.42026000       2.46006000      12.00000000      -0.00003800      -0.00009200       0.00000000
49
Lattice="8.52159977 0.0 0.0 -4.260799885 7.379921881 0.0 0.0 0.0 24.0" Properties=species:S:1:pos:R:3:forces:R:3 stress="-0.006026557793096964 3.220618708955761e-06 -0.0 3.220618708955761e-06 -0.006022837853657937 -0.0 -0.0 -0.0 0.004921704572160488" free_energy=-447.93178514 energy=-447.92965265 pbc="T T T"
C        0.00000000       0.00000000      13.97160000      -0.08798400      -0.15239300      -0.02382300
C       -2.13040000       3.68996000      13.97677000      -0.00971000      -0.03372200      -0.04206300
C        4.26080000       0.00000000      13.97677000      -0.02434900      -0.02526900      -0.04206600
C        2.13040000       3.68996000      13.96672000       0.09469600       0.16400700      -0.01675000
C        0.00000000       2.46002000      13.96682000      -0.18474600      -0.00052200      -0.01922900
C       -2.13040000       6.14998000      13.97687000       0.03866100       0.00795400      -0.04355000
C        4.26080000       2.46002000      13.97171000       0.18048800      -0.00052300      -0.02582800
C        2.13040000       6.14998000      13.97687000       0.03866100      -0.00900800      -0.04350300
C        2.13044000       1.23001000      13.96682000       0.09192300      -0.16025000      -0.01923200
C        0.00004000       4.91997000      13.97171000      -0.09070100       0.15605400      -0.02582400
C        6.39124000       1.23001000      13.97687000      -0.01244200       0.03745800      -0.04355000
C        4.26084000       4.91997000      13.97687000      -0.02713100       0.02897600      -0.04350400
C        7.10130000       2.46002000      13.97175000      -0.17789100      -0.00202400      -0.02802700
C       -3.55069000       6.14998000      13.97692000      -0.03600500       0.00643800      -0.04593900
C        2.84050000       2.46002000      13.96687000       0.18731200      -0.00193100      -0.02117000
C        0.71010000       6.14998000      13.97693000      -0.03600300      -0.01053500      -0.04593400
C        0.71015000       1.23001000      13.96686000      -0.09383400      -0.16253600      -0.02109600
C       -1.42025000       4.91997000      13.97693000       0.02529700       0.02684500      -0.04591400
C        4.97095000       1.23001000      13.97693000       0.01059800       0.03533000      -0.04591600
C        2.84055000       4.91997000      13.97176000       0.08884900       0.15389000      -0.02810900
C        2.84059000       0.00000000      13.97175000       0.08718900      -0.15506300      -0.02803000
C        0.71019000       3.68996000      13.96688000      -0.09532600       0.16125700      -0.02116900