49
Lattice="8.52159977 0.0 0.0 -4.260799885 7.379921881 0.0 0.0 0.0 24.0" Properties=species:S:1:pos:R:3:forces:R:3 stress="-0.006370982991190581 5.829569523574962e-06 1.2483018251766519e-08 5.829569523574962e-06 -0.006370127904440335 9.362263688824886e-08 1.2483018251766519e-08 9.362263688824886e-08 0.0020586431964992008" free_energy=-447.7253082 energy=-447.72361854 pbc="T T T"
C        0.00000000       0.00000000      13.85000000      -0.14224400      -0.24637100       0.02619100
C       -2.13040000       3.68996000      13.85000000       0.00251400      -0.00448600      -0.01889400
C        4.26080000       0.00000000      13.85000000      -0.00514900      -0.00006300      -0.01889400
C        2.13040000       3.68996000      13.85000000       0.05194600       0.08997800      -0.00285600
C        0.00000000       2.46002000      13.85000000      -0.14310000       0.24899000       0.02507400
C       -2.13040000       6.14998000      13.85000000       0.05113100      -0.08736500      -0.00407400
C        4.26080000       2.46002000      13.85000000      -0.00596500       0.00266500      -0.02011200
C        2.13040000       6.14998000      13.85000000       0.00171600       0.00710900      -0.02011100
C        2.13044000       1.23001000      13.85000000       0.28717900       0.00056600       0.02507500
C        0.00004000       4.91997000      13.85000000       0.00528300      -0.00383100      -0.02011100
C        6.39124000       1.23001000      13.85000000      -0.10123000       0.00060100      -0.00407400
C        4.26084000       4.91997000      13.85000000       0.00529200       0.00504300      -0.02011000
C        7.10130000       2.46002000      13.85000000      -0.14997100       0.04612800      -0.01706000
C       -3.55069000       6.14998000      13.85000000       0.03576000      -0.15728400      -0.01705900
C        2.84050000       2.46002000      13.85000000       0.11904400       0.10528700      -0.01705700
C        0.71010000       6.14998000      13.85000000       0.00159900      -0.00194800      -0.00720300
C        0.71015000       1.23001000      13.85000000      -0.00094400      -0.00157500       1.74109700
C       -1.42025000       4.91997000      13.85000000      -0.01713700       0.02644700      -0.01543800
C        4.97095000       1.23001000      13.85000000       0.03142600      -0.00159200      -0.01543800
C        2.84055000       4.91997000      13.85000000      -0.01713400      -0.02962200      -0.01543400
C        2.84059000       0.00000000      13.85000000       0.11488400      -0.10678600      -0.01706000
C        0.71019000       3.68996000      13.85000000       0.03160800       0.15576500      -0.01705800
C        7.10139000       0.00000000      13.85000000      -0.15414300      -0.04764700      -0.01705900
C        4.97099000       3.68996000      13.85000000      -0.00253200       0.00044100      -0.00720300
C        0.00000000       0.00000000      10.15000000      -0.10972100      -0.19172500      -0.04580800
C       -2.13040000       3.68996000      10.15000000       0.03101500       0.02868200       0.01127400
C        4.26080000       0.00000000      10.15000000       0.01083800       0.04030600       0.01127600
C        2.13040000       3.68996000      10.15000000       0.09669300       0.16575000       0.04759800
C        0.00000000       2.46002000      10.15000000      -0.10879700       0.18736400      -0.04470200
C       -2.13040000       6.14998000      10.15000000       0.09754400      -0.17011300       0.04882000
C        4.26080000       2.46002000      10.15000000       0.01170400      -0.04471800       0.01249000
C        2.13040000       6.14998000      10.15000000       0.03187700      -0.03304900       0.01249100
C        2.13044000       1.23001000      10.15000000       0.21901400      -0.00292000      -0.04472300
C        0.00004000       4.91997000      10.15000000      -0.04220900      -0.01453500       0.01249100
C        6.39124000       1.23001000      10.15000000      -0.19373700      -0.00290800       0.04881500
C        4.26084000       4.91997000      10.15000000      -0.04222200       0.00876000       0.01249000
C        7.81145000       1.23001000      10.15000000      -0.21361100       0.00020800      -0.04073200
C       -2.84055000       4.91997000      10.15000000       0.04512900       0.01220000       0.00667500
C        3.55065000       1.23001000      10.15000000       0.18988100       0.00023500       0.04318200
C        1.42025000       4.91997000      10.15000000       0.04510500      -0.01172800       0.00667800
C        1.42030000       0.00000000      10.15000000       0.10732100      -0.18518400      -0.04072700
C       -0.71010000       3.68996000      10.15000000      -0.09443800       0.16423500       0.04318700
C        5.68109000       0.00000000      10.15000000      -0.01170400       0.04483400       0.00667400
C        3.55069000       3.68996000      10.15000000      -0.03243500       0.03287800       0.00667200
C        1.42034000       2.45995000      10.15000000       0.10585000       0.19214000      -0.04076700
C       -0.71006000       6.14991000      10.15000000      -0.03385500      -0.02594000       0.00667900
C        5.68114000       2.45995000      10.15000000      -0.01314700      -0.03791300       0.00667600
C        3.55074000       6.14991000      10.15000000      -0.09589100      -0.15730200       0.04319100
Li       0.71015000       1.23001000      12.00000000      -0.00003700      -0.00000500      -1.65503300
49
Lattice="8.52159977 0.0 0.0 -4.260799885 7.379921881 0.0 0.0 0.0 24.0" Properties=species:S:1:pos:R:3:forces:R:3 stress="-0.006352308395885938 5.910709142211445e-06 3.744905475529955e-08 5.910709142211445e-06 -0.0063516280713912165 1.2483018251766518e-07 3.744905475529955e-08 1.2483018251766518e-07 0.003120879393124147" free_energy=-447.85902743 energy=-447.8573375 pbc="T T T"
C        0.00000000       0.00000000      13.85126000      -0.10952000      -0.18968700       0.43812800
C       -2.13040000       3.68996000      13.84909000       0.00124000      -0.00438800      -0.05490900
C        4.26080000       0.00000000      13.84909000      -0.00442800      -0.00111600      -0.05490900
C        2.13040000       3.68996000      13.84986000       0.04746800       0.08222400       0.02345900
C        0.00000000       2.46002000      13.85121000      -0.11035900       0.19232500       0.43739400
C       -2.13040000       6.14998000      13.84980000       0.04668100      -0.07959800       0.02295500
C        4.26080000       2.46002000      13.84903000      -0.00523500       0.00376300      -0.05557200
C        2.13040000       6.14998000      13.84903000       0.00044700       0.00704500      -0.05556800
C        2.13044000       1.23001000      13.85121000       0.22173300       0.00059100       0.43739300
C        0.00004000       4.91997000      13.84903000       0.00586800      -0.00264800      -0.05557200
C        6.39124000       1.23001000      13.84980000      -0.09228200       0.00063200       0.02295500
C        4.26084000       4.91997000      13.84903000       0.00587000       0.00391400      -0.05556800
C        7.10130000       2.46002000      13.84918000      -0.15301800       0.04288900      -0.03648200
C       -3.55069000       6.14998000      13.84918000       0.04011600      -0.15823200      -0.03654900
C        2.84050000       2.46002000      13.84918000       0.11771400       0.10959200      -0.03650400
C        0.71010000       6.14998000      13.84965000       0.00160600      -0.00192400      -0.02356100
C        0.71015000       1.23001000      13.93400000      -0.00143100      -0.00242200      -0.30946100
C       -1.42025000       4.91997000      13.84926000      -0.01384100       0.02074700      -0.00639500
C        4.97095000       1.23001000      13.84926000       0.02484200      -0.00158800      -0.00639500
C        2.84055000       4.91997000      13.84926000      -0.01383500      -0.02390800      -0.00626800
C        2.84059000       0.00000000      13.84918000       0.11360400      -0.11104500      -0.03648200
C        0.71019000       3.68996000      13.84918000       0.03600400       0.15676600      -0.03650400
C        7.10139000       0.00000000      13.84918000      -0.15714000      -0.04434900      -0.03655000
C        4.97099000       3.68996000      13.84965000      -0.00251400       0.00045800      -0.02356200
C        0.00000000       0.00000000      10.14779000      -0.12688400      -0.22147500      -0.07369200
C       -2.13040000       3.68996000      10.15054000       0.03352800       0.03163300       0.01812700
C        4.26080000       0.00000000      10.15054000       0.01215900       0.04394500       0.01812600
C        2.13040000       3.68996000      10.15230000       0.10251000       0.17579900       0.01343700
C        0.00000000       2.46002000      10.14784000      -0.12595600       0.21714300      -0.07326000
C       -2.13040000       6.14998000      10.15236000       0.10336200      -0.18014700       0.01413700
C        4.26080000       2.46002000      10.15060000       0.01303200      -0.04834200       0.01877100
C        2.13040000       6.14998000      10.15060000       0.03438600      -0.03598600       0.01876500
C        2.13044000       1.23001000      10.14784000       0.25341000      -0.00291300      -0.07326700
C        0.00004000       4.91997000      10.15060000      -0.04598200      -0.01521500       0.01877500
C        6.39124000       1.23001000      10.15235000      -0.20530800      -0.00290500       0.01413600
C        4.26084000       4.91997000      10.15060000      -0.04599300       0.00944400       0.01875900
C        7.81145000       1.23001000      10.14803000      -0.24763400       0.00026600      -0.07244100
C       -2.84055000       4.91997000      10.15032000       0.04904000       0.01312500       0.02113500
C        3.55065000       1.23001000      10.15208000       0.20091100       0.00022400       0.01404700
C        1.42025000       4.91997000      10.15032000       0.04901800      -0.01259900       0.02112800
C        1.42030000       0.00000000      10.14804000       0.12436200      -0.21459800      -0.07244100
C       -0.71010000       3.68996000      10.15208000      -0.09998600       0.17380000       0.01405400
C        5.68109000       0.00000000      10.15032000      -0.01287900       0.04870100       0.02113500
C        3.55069000       3.68996000      10.15032000      -0.03517000       0.03584800       0.02112600
C        1.42034000       2.45995000      10.14803000       0.12282800       0.22157800      -0.07248000
C       -0.71006000       6.14991000      10.15032000      -0.03657900      -0.02882800       0.02112900
C        5.68114000       2.45995000      10.15032000      -0.01431800      -0.04170000       0.02112600
C        3.55074000       6.14991000      10.15208000      -0.10135800      -0.16673800       0.01408300
Li       0.71015000       1.23001000      11.92016000      -0.00009000      -0.00010200      -0.33989400
49
Lattice="8.52159977 0.0 0.0 -4.260799885 7.379921881 0.0 0.0 0.0 24.0" Properties=species:S:1:pos:R:3:forces:R:3 stress="-0.006168733129475459 7.002973239241016e-06 4.955758245951307e-06 7.002973239241016e-06 -0.006171766502910639 3.713697929900539e-06 4.955758245951307e-06 3.713697929900539e-06 0.003257999107110676" free_energy=-447.88016704 energy=-447.878477 pbc="T T T"
C        0.00000000       0.00000000      13.86992000      -0.12519800      -0.21727300       0.07187300
C       -2.13040000       3.68996000      13.84675000       0.00212300       0.00073200      -0.03834300
C        4.26080000       0.00000000      13.84675000      -0.00006400       0.00199400      -0.03834400
C        2.13040000       3.68996000      13.85086000       0.04666200       0.08039800      -0.02505800
C        0.00000000       2.46002000      13.86983000      -0.12599000       0.22094800       0.07368000
C       -2.13040000       6.14998000      13.85078000       0.04586600      -0.07667800      -0.02539400
C        4.26080000       2.46002000      13.84666000      -0.00086800       0.00172500      -0.03873800
C        2.13040000       6.14998000      13.84666000       0.00133500       0.00299800      -0.03869800
C        2.13044000       1.23001000      13.86983000       0.25470900       0.00114900       0.07367800
C        0.00004000       4.91997000      13.84666000       0.00229200      -0.00010100      -0.03873700
C        6.39124000       1.23001000      13.85078000      -0.08897400       0.00117100      -0.02539400
C        4.26084000       4.91997000      13.84666000       0.00229300       0.00244400      -0.03869700
C        7.10130000       2.46002000      13.84762000      -0.13915100       0.04015500       0.09361300
C       -3.55069000       6.14998000      13.84762000       0.03684400      -0.14443100       0.09354100
C        2.84050000       2.46002000      13.84762000       0.10872000       0.10027000       0.09357400
C        0.71010000       6.14998000      13.84865000       0.00520800      -0.00664600      -0.07148800
C        0.71015000       1.23001000      13.92082000      -0.00093600      -0.00199900       0.18103300
C       -1.42025000       4.91997000      13.84898000      -0.01245800       0.01985100      -0.03690000
C        4.97095000       1.23001000      13.84898000       0.02374800      -0.00105400      -0.03690100
C        2.84055000       4.91997000      13.84899000      -0.01245400      -0.02195000      -0.03691400
C        2.84059000       0.00000000      13.84762000       0.10467800      -0.10061900       0.09361300
C        0.71019000       3.68996000      13.84762000       0.03280300       0.14409900       0.09357500
C        7.10139000       0.00000000      13.84762000      -0.14317700      -0.04049800       0.09354100
C        4.97099000       3.68996000      13.84865000      -0.00803000       0.00099900      -0.07148800
C        0.00000000       0.00000000      10.14465000      -0.12927600      -0.22605300      -0.05697300
C       -2.13040000       3.68996000      10.15132000       0.03405300       0.03297800       0.02004200
C        4.26080000       0.00000000      10.15132000       0.01344000       0.04485300       0.02004200
C        2.13040000       3.68996000      10.15287000       0.10395500       0.17786600      -0.00090800
C        0.00000000       2.46002000      10.14472000      -0.12834400       0.22279600      -0.05707900
C       -2.13040000       6.14998000      10.15296000       0.10480800      -0.18114200      -0.00047700
C        4.26080000       2.46002000      10.15140000       0.01431300      -0.05522100       0.01689100
C        2.13040000       6.14998000      10.15140000       0.03490200      -0.04330500       0.01689800
C        2.13044000       1.23001000      10.14472000       0.25987700      -0.00237400      -0.05708100
C        0.00004000       4.91997000      10.15140000      -0.05220100      -0.01776400       0.01689600
C        6.39124000       1.23001000      10.15296000      -0.20651300      -0.00237000      -0.00047900
C        4.26084000       4.91997000      10.15140000      -0.05221200       0.00601200       0.01689500
C        7.81145000       1.23001000      10.14495000      -0.25295100       0.00085300      -0.05687900
C       -2.84055000       4.91997000      10.15122000       0.05028700       0.01340700       0.02002600
C        3.55065000       1.23001000      10.15268000       0.20316000       0.00075100      -0.00163800
C        1.42025000       4.91997000      10.15122000       0.05026200      -0.01183800       0.02000400
C        1.42030000       0.00000000      10.14495000       0.12789800      -0.21912000      -0.05688000
C       -0.71010000       3.68996000      10.15268000      -0.10028600       0.17580000      -0.00163200
C        5.68109000       0.00000000      10.15122000      -0.01288900       0.04970800       0.02002700
C        3.55069000       3.68996000      10.15122000      -0.03476400       0.03709300       0.02000200
C        1.42034000       2.45995000      10.14495000       0.12628500       0.22712800      -0.05695600
C       -0.71006000       6.14991000      10.15122000      -0.04224200      -0.02896500       0.01767500
C        5.68114000       2.45995000      10.15122000      -0.02040100      -0.04160700       0.01767100
C        3.55074000       6.14991000      10.15268000      -0.10163200      -0.16763700      -0.00158300
Li       0.71014000       1.23001000      11.90569000       0.00048900       0.00046900      -0.27513100
49
Lattice="8.52159977 0.0 0.0 -4.260799885 7.379921881 0.0 0.0 0.0 24.0" Properties=species:S:1:pos:R:3:forces:R:3 stress="-0.006113158732218594 5.973124233470278e-06 8.113961863648234e-08 5.973124233470278e-06 -0.006112522098287755 1.5603772814708145e-07 8.113961863648234e-08 1.5603772814708145e-07 0.003364341939597475" free_energy=-447.89048889 energy=-447.88879866 pbc="T T T"
C        0.00000000       0.00000000      13.87626000      -0.12462300      -0.21584200       0.06943500
C       -2.13040000       3.68996000      13.84433000       0.00216100       0.00066800      -0.01488300
C        4.26080000       0.00000000      13.84433000      -0.00051300       0.00221100      -0.01488300
C        2.13040000       3.68996000      13.84960000       0.04479000       0.07758900       0.03287700
C        0.00000000       2.46002000      13.87627000      -0.12544700       0.21851700       0.07036200
C       -2.13040000       6.14998000      13.84950000       0.04398500      -0.07492500       0.03279000
C        4.26080000       2.46002000      13.84422000      -0.00132100       0.00043200      -0.01498300
C        2.13040000       6.14998000      13.84422000       0.00138200       0.00200700      -0.01491000
C        2.13044000       1.23001000      13.87627000       0.25195700       0.00062200       0.07036400
C        0.00004000       4.91997000      13.84422000       0.00102400      -0.00092400      -0.01498300
C        6.39124000       1.23001000      13.84950000      -0.08688800       0.00063500       0.03278900
C        4.26084000       4.91997000      13.84422000       0.00103600       0.00220500      -0.01491000
C        7.10130000       2.46002000      13.85260000      -0.13692600       0.03928800       0.04458700
C       -3.55069000       6.14998000      13.85260000       0.03518600      -0.14262700       0.04389600
C        2.84050000       2.46002000      13.85260000       0.10666500       0.09737800       0.04466500
C        0.71010000       6.14998000      13.84457000       0.00154200      -0.00180600      -0.06945400
C        0.71015000       1.23001000      13.92916000      -0.00151000      -0.00255100       0.06575100
C       -1.42025000       4.91997000      13.84691000      -0.01229800       0.01798900      -0.04513900
C        4.97095000       1.23001000      13.84691000       0.02168400      -0.00163100      -0.04513900
C        2.84055000       4.91997000      13.84691000      -0.01229600      -0.02124500      -0.04525700
C        2.84059000       0.00000000      13.85260000       0.10244300      -0.09891200       0.04458600
C        0.71019000       3.68996000      13.85260000       0.03094900       0.14108700       0.04466600
C        7.10139000       0.00000000      13.85260000      -0.14115900      -0.04081500       0.04389500
C        4.97099000       3.68996000      13.84457000      -0.00237900       0.00046000      -0.06945400
C        0.00000000       0.00000000      10.14110000      -0.13384400      -0.23353200      -0.06040500
C       -2.13040000       3.68996000      10.15252000       0.03373700       0.03306100       0.01698400
C        4.26080000       0.00000000      10.15252000       0.01330100       0.04483400       0.01698500
C        2.13040000       3.68996000      10.15289000       0.10429300       0.17887900      -0.00060500
C        0.00000000       2.46002000      10.14117000      -0.13291500       0.22920400      -0.06128500
C       -2.13040000       6.14998000      10.15301000       0.10513500      -0.18321100      -0.00149600
C        4.26080000       2.46002000      10.15244000       0.01417900      -0.04923300       0.01932600
C        2.13040000       6.14998000      10.15244000       0.03459400      -0.03741300       0.02017600
C        2.13044000       1.23001000      10.14117000       0.26735000      -0.00291600      -0.06129700
C        0.00004000       4.91997000      10.15244000      -0.04731800      -0.01467300       0.01933000
C        6.39124000       1.23001000      10.15301000      -0.20883500      -0.00290900      -0.00150000
C        4.26084000       4.91997000      10.15244000      -0.04732400       0.00890400       0.02017600
C        7.81145000       1.23001000      10.14141000      -0.26153000       0.00034200      -0.06068500
C       -2.84055000       4.91997000      10.15244000       0.05030800       0.01273100       0.01660700
C        3.55065000       1.23001000      10.15267000       0.20454900       0.00021900      -0.00217200
C        1.42025000       4.91997000      10.15244000       0.05028900      -0.01227800       0.01539100
C        1.42030000       0.00000000      10.14141000       0.13137000      -0.22659200      -0.06069600
C       -0.71010000       3.68996000      10.15267000      -0.10181700       0.17695300      -0.00216800
C        5.68109000       0.00000000      10.15244000      -0.01386300       0.04960900       0.01660800
C        3.55069000       3.68996000      10.15244000      -0.03553600       0.03711600       0.01538900
C        1.42034000       2.45995000      10.14141000       0.12972200       0.23351600      -0.06117700
C       -0.71006000       6.14991000      10.15231000      -0.03686400      -0.03003600       0.01815800
C        5.68114000       2.45995000      10.15231000      -0.01523000      -0.04254700       0.01816100
C        3.55074000       6.14991000      10.15267000      -0.10315600      -0.16983900      -0.00341000
Li       0.71017000       1.23003000      11.88863000      -0.00003800      -0.00000400      -0.11305600
49
Lattice="8.52159977 0.0 0.0 -4.260799885 7.379921881 0.0 0.0 0.0 24.0" Properties=species:S:1:pos:R:3:forces:R:3 stress="-0.0060435908715015 5.991848760847927e-06 1.3107169164354844e-07 5.991848760847927e-06 -0.006042966720588912 2.371773467835638e-07 1.3107169164354844e-07 2.371773467835638e-07 0.003578837642217579" free_energy=-447.89706444 energy=-447.89537399 pbc="T T T"
C        0.00000000       0.00000000      13.88343000      -0.12539000      -0.21717000       0.06265500
C       -2.13040000       3.68996000      13.84270000       0.00290900       0.00063800      -0.03223700
C        4.26080000       0.00000000      13.84270000      -0.00091300       0.00284400      -0.03223800
C        2.13040000       3.68996000      13.85190000       0.04411300       0.07641800       0.02236100
C        0.00000000       2.46002000      13.88353000      -0.12624100       0.21990900       0.06330000
C       -2.13040000       6.14998000      13.85178000       0.04330000      -0.07373200       0.02225600
C        4.26080000       2.46002000      13.84258000      -0.00173800      -0.00020100      -0.03211200
C        2.13040000       6.14998000      13.84258000       0.00213200       0.00204000      -0.03251800
C        2.13044000       1.23001000      13.88353000       0.25355800       0.00063100       0.06329900
C        0.00004000       4.91997000      13.84258000       0.00068400      -0.00160100      -0.03211100
C        6.39124000       1.23001000      13.85178000      -0.08551300       0.00063800       0.02225600
C        4.26084000       4.91997000      13.84258000       0.00068900       0.00287200      -0.03251800
C        7.10130000       2.46002000      13.85669000      -0.13428100       0.03949000       0.01969100
C       -3.55069000       6.14998000      13.85663000       0.03370500      -0.14052800       0.01912500
C        2.84050000       2.46002000      13.85669000       0.10560900       0.09494000       0.01976500
C        0.71010000       6.14998000      13.83865000       0.00145000      -0.00165100      -0.01944100
C        0.71015000       1.23001000      13.93482000      -0.00149800      -0.00253100       0.04109600
C       -1.42025000       4.91997000      13.84317000      -0.01213600       0.01754000      -0.01297400
C        4.97095000       1.23001000      13.84317000       0.02121500      -0.00171600      -0.01297400
C        2.84055000       4.91997000      13.84317000      -0.01213900      -0.02097400      -0.01299200
C        2.84059000       0.00000000      13.85669000       0.10129700      -0.09652100       0.01969200
C        0.71019000       3.68996000      13.85669000       0.02936700       0.13895300       0.01976500
C        7.10139000       0.00000000      13.85663000      -0.13860000      -0.04104800       0.01912400
C        4.97099000       3.68996000      13.83865000      -0.00219900       0.00045800      -0.01944100
C        0.00000000       0.00000000      10.13584000      -0.13641300      -0.23798500      -0.05188400
C       -2.13040000       3.68996000      10.15403000       0.03384400       0.03344900       0.01930300
C        4.26080000       0.00000000      10.15403000       0.01358600       0.04512000       0.01930100
C        2.13040000       3.68996000      10.15288000       0.10445100       0.17915000      -0.01048900
C        0.00000000       2.46002000      10.13584000      -0.13548200       0.23364900      -0.05221700
C       -2.13040000       6.14998000      10.15293000       0.10530200      -0.18349300      -0.00841300
C        4.26080000       2.46002000      10.15409000       0.01445400      -0.04951700       0.01935400
C        2.13040000       6.14998000      10.15416000       0.03472100      -0.03779400       0.01814100
C        2.13044000       1.23001000      10.13584000       0.27248500      -0.00291900      -0.05222200
C        0.00004000       4.91997000      10.15409000      -0.04769800      -0.01457900       0.01935500
C        6.39124000       1.23001000      10.15293000      -0.20916000      -0.00290700      -0.00841000
C        4.26084000       4.91997000      10.15416000      -0.04771500       0.00882100       0.01814300
C        7.81145000       1.23001000      10.13614000      -0.26666000       0.00033500      -0.05166100
C       -2.84055000       4.91997000      10.15393000       0.05061900       0.01255800       0.02075600
C        3.55065000       1.23001000      10.15253000       0.20508900       0.00022800      -0.00824000
C        1.42025000       4.91997000      10.15384000       0.05058900      -0.01216200       0.02196100
C        1.42030000       0.00000000      10.13613000       0.13392500      -0.23103500      -0.05166400
C       -0.71010000       3.68996000      10.15253000      -0.10208100       0.17742700      -0.00823400
C        5.68109000       0.00000000      10.15393000      -0.01417000       0.04979400       0.02075400
C        3.55069000       3.68996000      10.15384000      -0.03558800       0.03743600       0.02195900
C        1.42034000       2.45995000      10.13609000       0.13229600       0.23797600      -0.05149300
C       -0.71006000       6.14991000      10.15390000      -0.03686600      -0.03030700       0.02071100
C        5.68114000       2.45995000      10.15390000      -0.01546800      -0.04268200       0.02071400
C        3.55074000       6.14991000      10.15244000      -0.10345300      -0.17034900      -0.00605800
Li       0.71017000       1.23004000      11.87661000       0.00001500       0.00008600      -0.02229400
49
Lattice="8.52159977 0.0 0.0 -4.260799885 7.379921881 0.0 0.0 0.0 24.0" Properties=species:S:1:pos:R:3:forces:R:3 stress="-0.005955554385280917 4.050739422698235e-06 1.903660283394394e-06 4.050739422698235e-06 -0.005957183419162773 3.3079998367181266e-06 1.903660283394394e-06 3.3079998367181266e-06 0.003662174272066372" free_energy=-447.90130195 energy=-447.89961131 pbc="T T T"
C        0.00000000       0.00000000      13.89022000      -0.12709400      -0.22012000       0.02737500
C       -2.13040000       3.68996000      13.83991000       0.00440700       0.00012600      -0.00655400
C        4.26080000       0.00000000      13.83991000      -0.00210600       0.00388700      -0.00655400
C        2.13040000       3.68996000      13.85382000       0.04410600       0.07640600       0.00609100
C        0.00000000       2.46002000      13.89039000      -0.12797400       0.22330800       0.02773700
C       -2.13040000       6.14998000      13.85370000       0.04219000      -0.07929300       0.00908700
C        4.26080000       2.46002000      13.83978000      -0.00294100      -0.00084300      -0.00638500
C        2.13040000       6.14998000      13.83977000       0.00362600       0.00294800      -0.00688900
C        2.13044000       1.23001000      13.89039000       0.25736700       0.00083000       0.02773600
C        0.00004000       4.91997000      13.83978000       0.00072800      -0.00296300      -0.00638500
C        6.39124000       1.23001000      13.85370000      -0.08977500      -0.00310300       0.00908600
C        4.26084000       4.91997000      13.83977000       0.00072800       0.00462000      -0.00688800
C        7.10130000       2.46002000      13.85966000      -0.13176300       0.04037800       0.01640500
C       -3.55069000       6.14998000      13.85955000       0.03203700      -0.13860700       0.01585100
C        2.84050000       2.46002000      13.85967000       0.10515100       0.09271300       0.01652100
C        0.71010000       6.14998000      13.83527000       0.00151900      -0.00137200      -0.01038300
C        0.71015000       1.23001000      13.93993000      -0.00135400      -0.00228400       0.04549500
C       -1.42025000       4.91997000      13.84106000      -0.01212400       0.01783600      -0.01806300