49
Lattice="8.52159977 0.0 0.0 -4.260799885 7.379921881 0.0 0.0 0.0 24.0" Properties=species:S:1:pos:R:3:forces:R:3 stress="-0.006207717595475726 5.4800450125255e-06 -6.241509125883259e-09 5.4800450125255e-06 -0.006206594123833068 -6.241509125883259e-09 -6.241509125883259e-09 -6.241509125883259e-09 -0.00454694563971508" free_energy=-446.87539546 energy=-446.8727679 pbc="T T T"
C        0.00000000       0.00000000      13.65000000      -0.16336800      -0.28301200       0.21293600
C       -2.13040000       3.68996000      13.65000000       0.01053900      -0.01018600       0.02720400
C        4.26080000       0.00000000      13.65000000      -0.01405600       0.00401300       0.02720400
C        2.13040000       3.68996000      13.65000000       0.05322200       0.09213300       0.04120700
C        0.00000000       2.46002000      13.65000000      -0.16420300       0.28551900       0.21429600
C       -2.13040000       6.14998000      13.65000000       0.05240700      -0.08956500       0.04256100
C        4.26080000       2.46002000      13.65000000      -0.01486600      -0.00145100       0.02855100
C        2.13040000       6.14998000      13.65000000       0.00973900       0.01276200       0.02855200
C        2.13044000       1.23001000      13.65000000       0.32941400       0.00052800       0.21429400
C        0.00004000       4.91997000      13.65000000       0.00620500      -0.01362400       0.02855500
C        6.39124000       1.23001000      13.65000000      -0.10373600       0.00057700       0.04256700
C        4.26084000       4.91997000      13.65000000       0.00621100       0.01479700       0.02855800
C        7.10130000       2.46002000      13.65000000      -0.15497400       0.03592300       0.04214200
C       -3.55069000       6.14998000      13.65000000       0.04710900      -0.15548700       0.04215200
C        2.84050000       2.46002000      13.65000000       0.11181200       0.11524200       0.04215400
C        0.71010000       6.14998000      13.65000000       0.00130400      -0.00143800       0.04239200
C        0.71015000       1.23001000      13.65000000      -0.00125300      -0.00203900       4.22632300
C       -1.42025000       4.91997000      13.65000000      -0.01914500       0.02895000       0.03341400
C        4.97095000       1.23001000      13.65000000       0.03455900      -0.00206100       0.03341500
C        2.84055000       4.91997000      13.65000000      -0.01913400      -0.03305000       0.03341500
C        2.84059000       0.00000000      13.65000000       0.10849900      -0.11619500       0.04213900
C        0.71019000       3.68996000      13.65000000       0.04379700       0.15450600       0.04215100
C        7.10139000       0.00000000      13.65000000      -0.15831100      -0.03689400       0.04215200
C        4.97099000       3.68996000      13.65000000      -0.00198100       0.00046600       0.04238900
C        0.00000000       0.00000000      10.35000000      -0.15832500      -0.27583200      -0.24828500
C       -2.13040000       3.68996000      10.35000000       0.04031600       0.03109600      -0.03296800
C        4.26080000       0.00000000      10.35000000       0.00822800       0.04959200      -0.03296600
C        2.13040000       3.68996000      10.35000000       0.10214900       0.17525900       0.00759500
C        0.00000000       2.46002000      10.35000000      -0.15739400       0.27154100      -0.24964600
C       -2.13040000       6.14998000      10.35000000       0.10298400      -0.17955400       0.00623800
C        4.26080000       2.46002000      10.35000000       0.00909200      -0.05395000      -0.03431400
C        2.13040000       6.14998000      10.35000000       0.04117600      -0.03539800      -0.03431400
C        2.13044000       1.23001000      10.35000000       0.31613300      -0.00286100      -0.24966100
C        0.00004000       4.91997000      10.35000000      -0.04894500      -0.02137300      -0.03431500
C        6.39124000       1.23001000      10.35000000      -0.20468900      -0.00288000       0.00623100
C        4.26084000       4.91997000      10.35000000      -0.04895300       0.01567400      -0.03431500
C        7.81145000       1.23001000      10.35000000      -0.30362500      -0.00033200      -0.23224600
C       -2.84055000       4.91997000      10.35000000       0.05387900       0.02075000      -0.04215900
C        3.55065000       1.23001000      10.35000000       0.19366800      -0.00029000      -0.00033100
C        1.42025000       4.91997000      10.35000000       0.05384800      -0.02132100      -0.04215600
C        1.42030000       0.00000000      10.35000000       0.15192600      -0.26344300      -0.23223900
C       -0.71010000       3.68996000      10.35000000      -0.09673000       0.16721200      -0.00032600
C        5.68109000       0.00000000      10.35000000      -0.00862400       0.05665700      -0.04216000
C        3.55069000       3.68996000      10.35000000      -0.04506500       0.03563100      -0.04216300
C        1.42034000       2.45995000      10.35000000       0.15134400       0.27081300      -0.23227400
C       -0.71006000       6.14991000      10.35000000      -0.04562900      -0.02825900      -0.04216500
C        5.68114000       2.45995000      10.35000000      -0.00920700      -0.04930200      -0.04216600
C        3.55074000       6.14991000      10.35000000      -0.09733800      -0.15986900      -0.00032600
Li       0.71015000       1.23001000      12.00000000      -0.00001100       0.00002500      -3.71929400
49
Lattice="8.52159977 0.0 0.0 -4.260799885 7.379921881 0.0 0.0 0.0 24.0" Properties=species:S:1:pos:R:3:forces:R:3 stress="-0.006289774715953713 5.467561994273734e-06 1.2483018251766518e-07 5.467561994273734e-06 -0.006288158165090109 8.738112776236562e-08 1.2483018251766518e-07 8.738112776236562e-08 -0.0008468229921633368" free_energy=-447.23237413 energy=-447.22946693 pbc="T T T"
C        0.00000000       0.00000000      13.66027000      -0.03494200      -0.06056100       1.11647100
C       -2.13040000       3.68996000      13.65131000       0.00189200      -0.01044700      -0.06028400
C        4.26080000       0.00000000      13.65131000      -0.00996400      -0.00360100      -0.06028400
C        2.13040000       3.68996000      13.65199000       0.04858400       0.08410800       0.12104900
C        0.00000000       2.46002000      13.66034000      -0.03587600       0.06322300       1.11663800
C       -2.13040000       6.14998000      13.65205000       0.04791600      -0.08178600       0.12188000
C        4.26080000       2.46002000      13.65138000      -0.01076600       0.00614000      -0.05963200
C        2.13040000       6.14998000      13.65138000       0.00108300       0.01300600      -0.05962500
C        2.13044000       1.23001000      13.66034000       0.07272300       0.00051700       1.11662900
C        0.00004000       4.91997000      13.65138000       0.01072200      -0.00627500      -0.05963000
C        6.39124000       1.23001000      13.65205000      -0.09476100       0.00058200       0.12188100
C        4.26084000       4.91997000      13.65138000       0.01074300       0.00742600      -0.05962500
C        7.10130000       2.46002000      13.65203000      -0.14557700       0.04516600       0.00665900
C       -3.55069000       6.14998000      13.65203000       0.03435700      -0.15190300       0.00662500
C        2.84050000       2.46002000      13.65203000       0.11504100       0.10250300       0.00662600
C        0.71010000       6.14998000      13.65205000       0.00125700      -0.00139900       0.00813900
C        0.71015000       1.23001000      13.85389000      -0.00087900      -0.00140700      -1.86891500
C       -1.42025000       4.91997000      13.65161000      -0.01754600       0.02606600       0.05099900
C        4.97095000       1.23001000      13.65161000       0.03126300      -0.00212100       0.05100000
C        2.84055000       4.91997000      13.65161000      -0.01751600      -0.03025100       0.05122000
C        2.84059000       0.00000000      13.65203000       0.11180600      -0.10343700       0.00665400
C        0.71019000       3.68996000      13.65203000       0.03115100       0.15093200       0.00662600
C        7.10139000       0.00000000      13.65203000      -0.14882900      -0.04614800       0.00662500
C        4.97099000       3.68996000      13.65204000      -0.00192300       0.00044300       0.00813800
C        0.00000000       0.00000000      10.33802000      -0.24323200      -0.42273900      -0.36721500
C       -2.13040000       3.68996000      10.34841000       0.04381700       0.03717800      -0.02747400
C        4.26080000       0.00000000      10.34841000       0.01165400       0.05570400      -0.02747300
C        2.13040000       3.68996000      10.35037000       0.11140500       0.19138700      -0.05287500
C        0.00000000       2.46002000      10.33796000      -0.24223300       0.41849000      -0.36778200
C       -2.13040000       6.14998000      10.35030000       0.11223500      -0.19559900      -0.05350200
C        4.26080000       2.46002000      10.34834000       0.01252800      -0.06000400      -0.02813400
C        2.13040000       6.14998000      10.34834000       0.04469100      -0.04140400      -0.02813200
C        2.13044000       1.23001000      10.33796000       0.48568900      -0.00279600      -0.36777800
C        0.00004000       4.91997000      10.34834000      -0.05597800      -0.02138300      -0.02813100
C        6.39124000       1.23001000      10.35030000      -0.22330400      -0.00285300      -0.05350500
C        4.26084000       4.91997000      10.34834000      -0.05598300       0.01575500      -0.02813700
C        7.81145000       1.23001000      10.33880000      -0.47073100      -0.00071900      -0.37041200
C       -2.84055000       4.91997000      10.34797000       0.06167000       0.02144500      -0.02671200
C        3.55065000       1.23001000      10.34998000       0.20786000      -0.00035300      -0.05769600
C        1.42025000       4.91997000      10.34797000       0.06162900      -0.02227300      -0.02672000
C        1.42030000       0.00000000      10.33880000       0.23527100      -0.40840500      -0.37040300
C       -0.71010000       3.68996000      10.34998000      -0.10378700       0.17940900      -0.05769300
C        5.68109000       0.00000000      10.34797000      -0.01183100       0.06370700      -0.02671100
C        3.55069000       3.68996000      10.34797000      -0.04969900       0.04185900      -0.02672100
C        1.42034000       2.45995000      10.33879000       0.23524900       0.41595000      -0.37037400
C       -0.71006000       6.14991000      10.34797000      -0.05015700      -0.03455400      -0.02672400
C        5.68114000       2.45995000      10.34797000      -0.01231300      -0.05641500      -0.02672600
C        3.55074000       6.14991000      10.34998000      -0.10442500      -0.17222900      -0.05773100
Li       0.71015000       1.23001000      11.82057000       0.00001800       0.00006600       1.17889800
49
Lattice="8.52159977 0.0 0.0 -4.260799885 7.379921881 0.0 0.0 0.0 24.0" Properties=species:S:1:pos:R:3:forces:R:3 stress="-0.0061243310335539255 5.4363544486443186e-06 7.48981095105991e-08 5.4363544486443186e-06 -0.006123032799655743 8.113961863648234e-08 7.48981095105991e-08 8.113961863648234e-08 -0.0011737282741405984" free_energy=-447.41598789 energy=-447.41320692 pbc="T T T"
C        0.00000000       0.00000000      13.69678000      -0.12561200      -0.21760400       0.23596200
C       -2.13040000       3.68996000      13.64934000       0.00733400      -0.00261500      -0.01038300
C        4.26080000       0.00000000      13.64934000      -0.00590500       0.00502900      -0.01038400
C        2.13040000       3.68996000      13.65595000       0.04674200       0.08092100       0.01611400
C        0.00000000       2.46002000      13.69685000      -0.12653700       0.22031400       0.23372700
C       -2.13040000       6.14998000      13.65604000       0.04599900      -0.07843200       0.01647500
C        4.26080000       2.46002000      13.64943000      -0.00671400      -0.00244200      -0.00991400
C        2.13040000       6.14998000      13.64943000       0.00652800       0.00521900      -0.00983800
C        2.13044000       1.23001000      13.69685000       0.25409700       0.00055200       0.23372400
C        0.00004000       4.91997000      13.64943000       0.00126400      -0.00705400      -0.00991300
C        6.39124000       1.23001000      13.65604000      -0.09090000       0.00060100       0.01647700
C        4.26084000       4.91997000      13.64943000       0.00127700       0.00824900      -0.00983700
C        7.10130000       2.46002000      13.65225000      -0.12325300       0.02875600       0.24734400
C       -3.55069000       6.14998000      13.65225000       0.03748800      -0.12433300       0.24731500
C        2.84050000       2.46002000      13.65225000       0.08965900       0.09141700       0.24732400
C        0.71010000       6.14998000      13.65231000       0.00126900      -0.00136400      -0.07091200
C        0.71015000       1.23001000      13.79278000      -0.00152300      -0.00252800       0.07297700
C       -1.42025000       4.91997000      13.65328000      -0.01458500       0.02086900       0.00255300
C        4.97095000       1.23001000      13.65328000       0.02528400      -0.00215500       0.00255200
C        2.84055000       4.91997000      13.65329000      -0.01454600      -0.02510700       0.00256100
C        2.84059000       0.00000000      13.65225000       0.08643800      -0.09231000       0.24734000
C        0.71019000       3.68996000      13.65225000       0.03424700       0.12340600       0.24732600
C        7.10139000       0.00000000      13.65225000      -0.12651300      -0.02965300       0.24731300
C        4.97099000       3.68996000      13.65231000      -0.00189600       0.00047000      -0.07091300
C        0.00000000       0.00000000      10.32601000      -0.21452300      -0.37307600      -0.26753000
C       -2.13040000       3.68996000      10.34751000       0.04245600       0.03677000      -0.02272700
C        4.26080000       0.00000000      10.34751000       0.01202000       0.05430300      -0.02272500
C        2.13040000       3.68996000      10.34864000       0.10961700       0.18824800      -0.09358700
C        0.00000000       2.46002000      10.32593000      -0.21352900       0.36883200      -0.26717200
C       -2.13040000       6.14998000      10.34855000       0.11045900      -0.19247300      -0.09395200
C        4.26080000       2.46002000      10.34742000       0.01289500      -0.05859100      -0.02315000
C        2.13040000       6.14998000      10.34742000       0.04332600      -0.04099000      -0.02315200
C        2.13044000       1.23001000      10.32593000       0.42838400      -0.00279800      -0.26716500
C        0.00004000       4.91997000      10.34742000      -0.05490400      -0.02037900      -0.02315100
C        6.39124000       1.23001000      10.34855000      -0.21966900      -0.00284700      -0.09395800
C        4.26084000       4.91997000      10.34742000      -0.05490900       0.01475900      -0.02315500
C        7.81145000       1.23001000      10.32668000      -0.41281100      -0.00082500      -0.26719900
C       -2.84055000       4.91997000      10.34709000       0.06031000       0.02115900      -0.02054900
C        3.55065000       1.23001000      10.34810000       0.20435600      -0.00036100      -0.09250300
C        1.42025000       4.91997000      10.34709000       0.06027200      -0.02193800      -0.02055900
C        1.42030000       0.00000000      10.32668000       0.20616600      -0.35827200      -0.26719700
C       -0.71010000       3.68996000      10.34810000      -0.10208200       0.17639900      -0.09250400
C        5.68109000       0.00000000      10.34709000      -0.01143600       0.06240800      -0.02054600
C        3.55069000       3.68996000      10.34709000      -0.04876800       0.04087000      -0.02055700
C        1.42034000       2.45995000      10.32668000       0.20642600       0.36609000      -0.26710700
C       -0.71006000       6.14991000      10.34709000      -0.04917900      -0.03344900      -0.02055300
C        5.68114000       2.45995000      10.34709000      -0.01188200      -0.05499700      -0.02054900
C        3.55074000       6.14991000      10.34810000      -0.10263300      -0.16908300      -0.09258800
Li       0.71015000       1.23001000      11.85912000      -0.00000400       0.00003200       0.30884600
49
Lattice="8.52159977 0.0 0.0 -4.260799885 7.379921881 0.0 0.0 0.0 24.0" Properties=species:S:1:pos:R:3:forces:R:3 stress="-0.005904267904793535 5.411388412140786e-06 -2.7837130701439332e-06 5.411388412140786e-06 -0.005903119467114371 -4.849652590811291e-06 -2.7837130701439332e-06 -4.849652590811291e-06 -0.0008184241256405683" free_energy=-447.46127521 energy=-447.45857991 pbc="T T T"
C        0.00000000       0.00000000      13.70643000      -0.12679500      -0.21965200       0.28897700
C       -2.13040000       3.68996000      13.64893000       0.00986600      -0.00447700       0.03429200
C        4.26080000       0.00000000      13.64893000      -0.00878600       0.00629200       0.03429000
C        2.13040000       3.68996000      13.65654000       0.04643700       0.08039700       0.11963600
C        0.00000000       2.46002000      13.70640000      -0.12764500       0.22283400       0.28781400
C       -2.13040000       6.14998000      13.65665000       0.04571100      -0.07731100       0.11979900
C        4.26080000       2.46002000      13.64904000      -0.00957300      -0.00307200       0.03450200
C        2.13040000       6.14998000      13.64904000       0.00904500       0.00768200       0.03450900
C        2.13044000       1.23001000      13.70640000       0.25683100       0.00085300       0.28781100
C        0.00004000       4.91997000      13.64904000       0.00214600      -0.00984400       0.03450400
C        6.39124000       1.23001000      13.65665000      -0.08978600       0.00091200       0.11980000
C        4.26084000       4.91997000      13.64904000       0.00215000       0.01166100       0.03450900
C        7.10130000       2.46002000      13.66402000      -0.12870800       0.03290000       0.11650500
C       -3.55069000       6.14998000      13.66402000       0.03715700      -0.13014100       0.11722100
C        2.84050000       2.46002000      13.66402000       0.09544700       0.09501700       0.11645600
C        0.71010000       6.14998000      13.64892000       0.00151100      -0.00115700      -0.06076600
C        0.71015000       1.23001000      13.79890000      -0.00128800      -0.00212500       0.18136000
C       -1.42025000       4.91997000      13.65333000      -0.01416600       0.02076000      -0.02364400
C        4.97095000       1.23001000      13.65333000       0.02498100      -0.00184700      -0.02364500
C        2.84055000       4.91997000      13.65334000      -0.01412000      -0.02437000      -0.02345600
C        2.84059000       0.00000000      13.66402000       0.09275500      -0.09496300       0.11650200
C        0.71019000       3.68996000      13.66402000       0.03447300       0.13021800       0.11645800
C        7.10139000       0.00000000      13.66402000      -0.13137600      -0.03284400       0.11722100
C        4.97099000       3.68996000      13.64892000      -0.00183700       0.00078300      -0.06076700
C        0.00000000       0.00000000      10.31380000      -0.20371400      -0.35438100      -0.24598100
C       -2.13040000       3.68996000      10.34647000       0.04215600       0.03640500      -0.02742400
C        4.26080000       0.00000000      10.34647000       0.01186900       0.05385300      -0.02742100
C        2.13040000       3.68996000      10.34426000       0.10762100       0.18477200      -0.08205700
C        0.00000000       2.46002000      10.31373000      -0.20274100       0.35078200      -0.24484000
C       -2.13040000       6.14998000      10.34415000       0.10847400      -0.18840700      -0.08217700
C        4.26080000       2.46002000      10.34636000       0.01388300      -0.06353600      -0.02142200
C        2.13040000       6.14998000      10.34636000       0.04412100      -0.04604400      -0.02143400
C        2.13044000       1.23001000      10.31373000       0.40738000      -0.00249500      -0.24483400
C        0.00004000       4.91997000      10.34636000      -0.05966700      -0.02200300      -0.02142700
C        6.39124000       1.23001000      10.34415000      -0.21513800      -0.00254100      -0.08218400
C        4.26084000       4.91997000      10.34636000      -0.05967000       0.01291300      -0.02142800
C        7.81145000       1.23001000      10.31448000      -0.39185300      -0.00051300      -0.24710700
C       -2.84055000       4.91997000      10.34615000       0.05918300       0.02107900      -0.01845500
C        3.55065000       1.23001000      10.34377000       0.20147500      -0.00016400      -0.08264700
C        1.42025000       4.91997000      10.34615000       0.05914600      -0.02124800      -0.01843600
C        1.42030000       0.00000000      10.31449000       0.19593400      -0.33995300      -0.24710300
C       -0.71010000       3.68996000      10.34377000      -0.10049100       0.17401500      -0.08265200
C        5.68109000       0.00000000      10.34615000      -0.01095900       0.06140200      -0.01845400
C        3.55069000       3.68996000      10.34615000      -0.04762400       0.04024700      -0.01843300
C        1.42034000       2.45995000      10.31449000       0.19621900       0.34844300      -0.24685400
C       -0.71006000       6.14991000      10.34615000      -0.04798900      -0.03215400      -0.01841900
C        5.68114000       2.45995000      10.34615000      -0.01136500      -0.05331400      -0.01840800
C        3.55074000       6.14991000      10.34377000      -0.10081600      -0.16593200      -0.08296500
Li       0.71015000       1.23002000      11.87216000       0.00013300       0.00026900       0.10267300
49
Lattice="8.52159977 0.0 0.0 -4.260799885 7.379921881 0.0 0.0 0.0 24.0" Properties=species:S:1:pos:R:3:forces:R:3 stress="-0.005663738867609371 5.7047393410572985e-06 4.056980931824117e-07 5.7047393410572985e-06 -0.005662584188421083 7.489810951059909e-07 4.056980931824117e-07 7.489810951059909e-07 -0.0001461823852373118" free_energy=-447.54365548 energy=-447.54125042 pbc="T T T"
C        0.00000000       0.00000000      13.73823000      -0.14016300      -0.24279800       0.11956900
C       -2.13040000       3.68996000      13.65220000       0.01419200      -0.00810900      -0.01039100
C        4.26080000       0.00000000      13.65219000      -0.01410200       0.00822600      -0.01039300
C        2.13040000       3.68996000      13.66854000       0.04740800       0.08208700       0.08211100
C        0.00000000       2.46002000      13.73804000      -0.14084300       0.24517600       0.12051100
C       -2.13040000       6.14998000      13.66867000       0.04668100      -0.07958200       0.08193800
C        4.26080000       2.46002000      13.65233000      -0.01484100      -0.00552300      -0.01059400
C        2.13040000       6.14998000      13.65234000       0.01337000       0.01076500      -0.00999100
C        2.13044000       1.23001000      13.73804000       0.28277000       0.00059900       0.12050800
C        0.00004000       4.91997000      13.65233000       0.00265100      -0.01562500      -0.01059200
C        6.39124000       1.23001000      13.66867000      -0.09224500       0.00062200       0.08193800
C        4.26084000       4.91997000      13.65234000       0.00265200       0.01695100      -0.00999100
C        7.10130000       2.46002000      13.68027000      -0.12005600       0.03555900       0.12666600
C       -3.55069000       6.14998000      13.68034000       0.03005800      -0.12385200       0.12753300
C        2.84050000       2.46002000      13.68027000       0.09312100       0.08581000       0.12666300
C        0.71010000       6.14998000      13.64155000       0.00147200      -0.00162100       0.04506400
C        0.71015000       1.23001000      13.82041000      -0.00120100      -0.00199100       0.37474700
C       -1.42025000       4.91997000      13.65098000      -0.01527300       0.02223100       0.06298500
C        4.97095000       1.23001000      13.65098000       0.02681700      -0.00207400       0.06298300
C        2.84055000       4.91997000      13.65101000      -0.01517400      -0.02620300       0.06317700
C        2.84059000       0.00000000      13.68027000       0.09074200      -0.08614600       0.12666400
C        0.71019000       3.68996000      13.68027000       0.02767300       0.12359400       0.12666600
C        7.10139000       0.00000000      13.68034000      -0.12237000      -0.03585200       0.12753400
C        4.97099000       3.68996000      13.64154000      -0.00221100       0.00051200       0.04506300
C        0.00000000       0.00000000      10.28477000      -0.19224000      -0.33456900      -0.16422400
C       -2.13040000       3.68996000      10.34335000       0.04262400       0.03468000      -0.01051300
C        4.26080000       0.00000000      10.34335000       0.01018000       0.05337800      -0.01050900
C        2.13040000       3.68996000      10.33441000       0.10071500       0.17276600      -0.10595200
C        0.00000000       2.46002000      10.28482000      -0.19125800       0.33043500      -0.16306900
C       -2.13040000       6.14998000      10.33429000       0.10158500      -0.17697100      -0.10481900
C        4.26080000       2.46002000      10.34383000       0.01091500      -0.05769200      -0.01714300
C        2.13040000       6.14998000      10.34383000       0.04362500      -0.03878500      -0.01761600
C        2.13044000       1.23001000      10.28483000       0.38406800      -0.00275800      -0.16305800
C        0.00004000       4.91997000      10.34383000      -0.05308600      -0.02167300      -0.01716200
C        6.39124000       1.23001000      10.33429000      -0.20175000      -0.00281000      -0.10482700
C        4.26084000       4.91997000      10.34383000      -0.05310300       0.01609300      -0.01759900
C        7.81145000       1.23001000      10.28536000      -0.37038800      -0.00015100      -0.16338500
C       -2.84055000       4.91997000      10.34396000       0.05727700       0.02206000      -0.02749800
C        3.55065000       1.23001000      10.33390000       0.19035400      -0.00055300      -0.11077500
C        1.42025000       4.91997000      10.34397000       0.05721800      -0.02287500      -0.02399400
C        1.42030000       0.00000000      10.28536000       0.18546200      -0.32115400      -0.16337500
C       -0.71010000       3.68996000      10.33390000      -0.09530900       0.16421800      -0.11078800
C        5.68109000       0.00000000      10.34396000      -0.00919400       0.06026400      -0.02750500
C        3.55069000       3.68996000      10.34397000      -0.04810700       0.03778200      -0.02398300
C        1.42034000       2.45995000      10.28539000       0.18470600       0.32857600      -0.16223100
C       -0.71006000       6.14991000      10.34397000      -0.04842500      -0.03011900      -0.02785600
C        5.68114000       2.45995000      10.34397000      -0.00942300      -0.05265500      -0.02783800
C        3.55074000       6.14991000      10.33386000      -0.09530400      -0.15635600      -0.10781700
Li       0.71016000       1.23004000      11.88685000      -0.00227000      -0.00389000      -0.08683500
49
Lattice="8.52159977 0.0 0.0 -4.260799885 7.379921881 0.0 0.0 0.0 24.0" Properties=species:S:1:pos:R:3:forces:R:3 stress="-0.005114673309805421 8.113961863648234e-06 7.364980768542245e-07 8.113961863648234e-06 -0.005111084442058038 1.3856150259460834e-06 7.364980768542245e-07 1.3856150259460834e-06 0.000763579984951432" free_energy=-447.62643444 energy=-447.62439151 pbc="T T T"
C        0.00000000       0.00000000      13.78092000      -0.15145000      -0.26233500      -0.00123900
C       -2.13040000       3.68996000      13.65406000       0.02896600      -0.02171600       0.05118000
C        4.26080000       0.00000000      13.65406000      -0.03328300       0.01422300       0.05117800
C        2.13040000       3.68996000      13.68655000       0.04821500       0.08349700       0.09319800
C        0.00000000       2.46002000      13.78065000      -0.15198600       0.26491500       0.00020900
C       -2.13040000       6.14998000      13.68669000       0.04790400      -0.08852100       0.09025000
C        4.26080000       2.46002000      13.65421000      -0.03397700      -0.01111600       0.05073100
C        2.13040000       6.14998000      13.65427000       0.02811400       0.02478200       0.03944100
C        2.13044000       1.23001000      13.78065000       0.30542400       0.00082500       0.00020800
C        0.00004000       4.91997000      13.65421000       0.00736800      -0.03498700       0.05073300
C        6.39124000       1.23001000      13.68669000      -0.10060800      -0.00278300       0.09025000
C        4.26084000       4.91997000      13.65427000       0.00741200       0.03673400       0.03944000
C        7.10130000       2.46002000      13.70654000      -0.11441700       0.04624400       0.09399500
C       -3.55069000       6.14998000      13.70674000       0.01844000      -0.12517100       0.09394900
C        2.84050000       2.46002000      13.70653000       0.10008000       0.07558200       0.09410800
C        0.71010000       6.14998000      13.63833000       0.00167400      -0.00153200       0.05960200
C        0.71015000       1.23001000      13.86600000      -0.00032000      -0.00048700       0.22768200
C       -1.42025000       4.91997000      13.65423000      -0.01815000       0.02731100       0.06636300