49
Lattice="8.52159977 0.0 0.0 -4.260799885 7.379921881 0.0 0.0 0.0 24.0" Properties=species:S:1:pos:R:3:forces:R:3 stress="-0.006185017226784889 4.974482773328957e-06 9.362263688824886e-08 4.974482773328957e-06 -0.006183363226866531 -7.48981095105991e-08 9.362263688824886e-08 -7.48981095105991e-08 -0.010586691741595034" free_energy=-445.80770815 energy=-445.80361068 pbc="T T T"
C        0.00000000       0.00000000      13.55000000      -0.18703400      -0.32407500       0.38310100
C       -2.13040000       3.68996000      13.55000000       0.01594500      -0.01081500       0.10379100
C        4.26080000       0.00000000      13.55000000      -0.01724100       0.00834900       0.10379400
C        2.13040000       3.68996000      13.55000000       0.05338900       0.09235500       0.11637800
C        0.00000000       2.46002000      13.55000000      -0.18786100       0.32649900       0.38391800
C       -2.13040000       6.14998000      13.55000000       0.05258500      -0.08985600       0.11718000
C        4.26080000       2.46002000      13.55000000      -0.01804000      -0.00583700       0.10459000
C        2.13040000       6.14998000      13.55000000       0.01514000       0.01332800       0.10459200
C        2.13044000       1.23001000      13.55000000       0.37680400       0.00049100       0.38391300
C        0.00004000       4.91997000      13.55000000       0.00404600      -0.01861100       0.10460100
C        6.39124000       1.23001000      13.55000000      -0.10401700       0.00054600       0.11719700
C        4.26084000       4.91997000      13.55000000       0.00404400       0.01972800       0.10460500
C        7.10130000       2.46002000      13.55000000      -0.15641100       0.02543300       0.14383000
C       -3.55069000       6.14998000      13.55000000       0.05692300      -0.15054200       0.14383500
C        2.84050000       2.46002000      13.55000000       0.10262800       0.12220100       0.14384000
C        0.71010000       6.14998000      13.55000000       0.00104400      -0.00097800       0.13249700
C        0.71015000       1.23001000      13.55000000      -0.00155900      -0.00245400       6.35817700
C       -1.42025000       4.91997000      13.55000000      -0.02026700       0.03006400       0.12495300
C        4.97095000       1.23001000      13.55000000       0.03602100      -0.00245100       0.12495400
C        2.84055000       4.91997000      13.55000000      -0.02024400      -0.03492200       0.12495300
C        2.84059000       0.00000000      13.55000000       0.10005300      -0.12264300       0.14382100
C        0.71019000       3.68996000      13.55000000       0.05434500       0.15008300       0.14383500
C        7.10139000       0.00000000      13.55000000      -0.15901100      -0.02588200       0.14383500
C        4.97099000       3.68996000      13.55000000      -0.00151400       0.00050600       0.13249100
C        0.00000000       0.00000000      10.45000000      -0.19960600      -0.34720000      -0.42427100
C       -2.13040000       3.68996000      10.45000000       0.04265900       0.03240900      -0.10783600
C        4.26080000       0.00000000      10.45000000       0.00809500       0.05232500      -0.10783400
C        2.13040000       3.68996000      10.45000000       0.10517700       0.18061100      -0.06643000
C        0.00000000       2.46002000      10.45000000      -0.19867500       0.34304500      -0.42503000
C       -2.13040000       6.14998000      10.45000000       0.10599000      -0.18476800      -0.06722700
C        4.26080000       2.46002000      10.45000000       0.00895500      -0.05656500      -0.10862700
C        2.13040000       6.14998000      10.45000000       0.04350900      -0.03658700      -0.10862800
C        2.13044000       1.23001000      10.45000000       0.39855600      -0.00276600      -0.42504200
C        0.00004000       4.91997000      10.45000000      -0.05124500      -0.02272700      -0.10863200
C        6.39124000       1.23001000      10.45000000      -0.21082100      -0.00281700      -0.06724100
C        4.26084000       4.91997000      10.45000000      -0.05124000       0.01716500      -0.10863200
C        7.81145000       1.23001000      10.45000000      -0.37751500      -0.00084700      -0.41248500
C       -2.84055000       4.91997000      10.45000000       0.05988800       0.02444500      -0.13322100
C        3.55065000       1.23001000      10.45000000       0.18789300      -0.00077800      -0.08963400
C        1.42025000       4.91997000      10.45000000       0.05985500      -0.02598800      -0.13321700
C        1.42030000       0.00000000      10.45000000       0.18855100      -0.32776000      -0.41247600
C       -0.71010000       3.68996000      10.45000000      -0.09415200       0.16189100      -0.08962900
C        5.68109000       0.00000000      10.45000000      -0.00832600       0.06365000      -0.13322200
C        3.55069000       3.68996000      10.45000000      -0.05200400       0.03844800      -0.13322500
C        1.42034000       2.45995000      10.45000000       0.18876000       0.33542300      -0.41251500
C       -0.71006000       6.14991000      10.45000000      -0.05182700      -0.03077800      -0.13322700
C        5.68114000       2.45995000      10.45000000      -0.00816300      -0.05599600      -0.13322800
C        3.55074000       6.14991000      10.45000000      -0.09402400      -0.15425600      -0.08962400
Li       0.71015000       1.23001000      12.00000000      -0.00005800      -0.00009600      -5.55754800
49
Lattice="8.52159977 0.0 0.0 -4.260799885 7.379921881 0.0 0.0 0.0 24.0" Properties=species:S:1:pos:R:3:forces:R:3 stress="-0.006292177696967179 5.1866940836089875e-06 1.1234716426589864e-07 5.1866940836089875e-06 -0.0062897622329354625 -8.113961863648234e-08 1.1234716426589864e-07 -8.113961863648234e-08 -0.004448822874747068" free_energy=-446.16545659 energy=-446.16064487 pbc="T T T"
C        0.00000000       0.00000000      13.56848000       0.06220400       0.10761600       1.70874100
C       -2.13040000       3.68996000      13.55501000      -0.00388900      -0.01161700      -0.01766500
C        4.26080000       0.00000000      13.55501000      -0.00802200      -0.00922700      -0.01766800
C        2.13040000       3.68996000      13.55561000       0.05266600       0.09110600       0.24848000
C        0.00000000       2.46002000      13.56852000       0.06121000      -0.10499800       1.70711000
C       -2.13040000       6.14998000      13.55565000       0.05217200      -0.08914600       0.24865400
C        4.26080000       2.46002000      13.55505000      -0.00881000       0.01168400      -0.01765600
C        2.13040000       6.14998000      13.55505000      -0.00470400       0.01407700      -0.01764300
C        2.13044000       1.23001000      13.56852000      -0.12144200       0.00044100       1.70709600
C        0.00004000       4.91997000      13.55505000       0.01459200      -0.00185300      -0.01764800
C        6.39124000       1.23001000      13.55565000      -0.10320400       0.00054600       0.24865700
C        4.26084000       4.91997000      13.55505000       0.01460400       0.00291600      -0.01764200
C        7.10130000       2.46002000      13.55694000      -0.12159300       0.05753500       0.06565800
C       -3.55069000       6.14998000      13.55694000       0.01162500      -0.13638600       0.06561400
C        2.84050000       2.46002000      13.55694000       0.11294300       0.07595800       0.06561700
C        0.71010000       6.14998000      13.55639000       0.00099200      -0.00097200       0.07349100
C        0.71015000       1.23001000      13.85674000      -0.00072000      -0.00105400      -3.48771900
C       -1.42025000       4.91997000      13.55603000      -0.02418500       0.03673100       0.13591400
C        4.97095000       1.23001000      13.55603000       0.04376100      -0.00251500       0.13591600
C        2.84055000       4.91997000      13.55603000      -0.02413700      -0.04167300       0.13617300
C        2.84059000       0.00000000      13.55694000       0.11044700      -0.07644000       0.06565200
C        0.71019000       3.68996000      13.55694000       0.00914000       0.13588700       0.06561600
C        7.10139000       0.00000000      13.55694000      -0.12410300      -0.05804000       0.06561500
C        4.97099000       3.68996000      13.55639000      -0.00148500       0.00046100       0.07348800
C        0.00000000       0.00000000      10.42953000      -0.39674000      -0.68848600      -0.69118800
C       -2.13040000       3.68996000      10.44480000       0.04559300       0.03907200      -0.10477100
C        4.26080000       0.00000000      10.44480000       0.01232000       0.05823200      -0.10476900
C        2.13040000       3.68996000      10.44680000       0.11401700       0.19601200      -0.14893800
C        0.00000000       2.46002000      10.42950000      -0.39571500       0.68431200      -0.68994600
C       -2.13040000       6.14998000      10.44676000       0.11482900      -0.20013600      -0.14902500
C        4.26080000       2.46002000      10.44476000       0.01319600      -0.06245500      -0.10477600
C        2.13040000       6.14998000      10.44476000       0.04645300      -0.04322100      -0.10477600
C        2.13044000       1.23001000      10.42949000       0.79251000      -0.00271500      -0.68994100
C        0.00004000       4.91997000      10.44476000      -0.05852300      -0.02197500      -0.10477500
C        6.39124000       1.23001000      10.44676000      -0.22862200      -0.00281900      -0.14902900
C        4.26084000       4.91997000      10.44476000      -0.05851700       0.01642900      -0.10478100
C        7.81145000       1.23001000      10.43010000      -0.76493600      -0.00095900      -0.69248700
C       -2.84055000       4.91997000      10.44357000       0.06754200       0.02494500      -0.09691300
C        3.55065000       1.23001000      10.44568000       0.19846600      -0.00088400      -0.14965200
C        1.42025000       4.91997000      10.44357000       0.06749600      -0.02671800      -0.09691900
C        1.42030000       0.00000000      10.43010000       0.38228100      -0.66336700      -0.69246800
C       -0.71010000       3.68996000      10.44568000      -0.09944900       0.17095000      -0.14965200
C        5.68109000       0.00000000      10.44357000      -0.01164700       0.07049200      -0.09691300
C        3.55069000       3.68996000      10.44357000      -0.05638800       0.04467500      -0.09691800
C        1.42034000       2.45995000      10.43010000       0.38257800       0.67094900      -0.69246700
C       -0.71006000       6.14991000      10.44357000      -0.05614300      -0.03709900      -0.09692100
C        5.68114000       2.45995000      10.44357000      -0.01141500      -0.06292800      -0.09692200
C        3.55074000       6.14991000      10.44568000      -0.09929000      -0.16344300      -0.14972300
Li       0.71014000       1.23001000      11.73189000       0.00004100       0.00010000       3.03082000
49
Lattice="8.52159977 0.0 0.0 -4.260799885 7.379921881 0.0 0.0 0.0 24.0" Properties=species:S:1:pos:R:3:forces:R:3 stress="-0.005956584234286687 5.149245028853688e-06 4.369056388118281e-08 5.149245028853688e-06 -0.005954742989094552 -1.6227923727296468e-07 4.369056388118281e-08 -1.6227923727296468e-07 -0.0048601445676519014" free_energy=-446.804309 energy=-446.80070288 pbc="T T T"
C        0.00000000       0.00000000      13.61899000      -0.12021100      -0.20829600       0.41135500
C       -2.13040000       3.68996000      13.55448000       0.00970100      -0.00099000       0.05573600
C        4.26080000       0.00000000      13.55449000      -0.00564100       0.00787000       0.05573600
C        2.13040000       3.68996000      13.56296000       0.04787600       0.08284100       0.11425200
C        0.00000000       2.46002000      13.61898000      -0.12100100       0.21071700       0.41087000
C       -2.13040000       6.14998000      13.56300000       0.04720300      -0.08056900       0.11355700
C        4.26080000       2.46002000      13.55452000      -0.00643800      -0.00538800       0.05580400
C        2.13040000       6.14998000      13.55452000       0.00889800       0.00347400       0.05588800
C        2.13044000       1.23001000      13.61898000       0.24306100       0.00052300       0.41086900
C        0.00004000       4.91997000      13.55452000      -0.00139300      -0.00831800       0.05580700
C        6.39124000       1.23001000      13.56300000      -0.09331300       0.00054800       0.11356200
C        4.26084000       4.91997000      13.55452000      -0.00139100       0.00940900       0.05588900
C        7.10130000       2.46002000      13.55888000      -0.09815100       0.01909900       0.39801200
C       -3.55069000       6.14998000      13.55888000       0.03321600      -0.09678500       0.39811700
C        2.84050000       2.46002000      13.55888000       0.06794100       0.07487600       0.39798500
C        0.71010000       6.14998000      13.55856000       0.00100500      -0.00096400      -0.02752100
C        0.71015000       1.23001000      13.75364000      -0.00090200      -0.00138900      -0.36569500
C       -1.42025000       4.91997000      13.56005000      -0.01614100       0.02277600       0.06034200
C        4.97095000       1.23001000      13.56005000       0.02767000      -0.00253100       0.06033900
C        2.84055000       4.91997000      13.56005000      -0.01609500      -0.02775400       0.06042100
C        2.84059000       0.00000000      13.55888000       0.06546800      -0.07537100       0.39800400
C        0.71019000       3.68996000      13.55888000       0.03073100       0.09636200       0.39798900
C        7.10139000       0.00000000      13.55888000      -0.10057100      -0.01954900       0.39811400
C        4.97099000       3.68996000      13.55856000      -0.00146300       0.00046700      -0.02752400
C        0.00000000       0.00000000      10.40910000      -0.29638100      -0.51474400      -0.48235300
C       -2.13040000       3.68996000      10.44170000       0.04410500       0.03878300      -0.10133000
C        4.26080000       0.00000000      10.44170000       0.01286300       0.05677600      -0.10132600
C        2.13040000       3.68996000      10.44239000       0.11171100       0.19196200      -0.21495100
C        0.00000000       2.46002000      10.40910000      -0.29541000       0.51059700      -0.48111900
C       -2.13040000       6.14998000      10.44235000       0.11252700      -0.19612900      -0.21455800
C        4.26080000       2.46002000      10.44166000       0.01373600      -0.06103000      -0.10108100
C        2.13040000       6.14998000      10.44166000       0.04495900      -0.04296800      -0.10107900
C        2.13044000       1.23001000      10.40910000       0.59198500      -0.00275500      -0.48110600
C        0.00004000       4.91997000      10.44166000      -0.05751600      -0.02081600      -0.10108400
C        6.39124000       1.23001000      10.44235000      -0.22395200      -0.00283200      -0.21456500
C        4.26084000       4.91997000      10.44166000      -0.05751100       0.01523400      -0.10108100
C        7.81145000       1.23001000      10.40963000      -0.56322400      -0.00046200      -0.47522000
C       -2.84055000       4.91997000      10.44071000       0.06609600       0.02547300      -0.08155100
C        3.55065000       1.23001000      10.44125000       0.19214700      -0.00085800      -0.20475900
C        1.42025000       4.91997000      10.44071000       0.06605300      -0.02718000      -0.08150800
C        1.42030000       0.00000000      10.40963000       0.28178600      -0.48840100      -0.47521900
C       -0.71010000       3.68996000      10.44125000      -0.09631900       0.16552000      -0.20476400
C        5.68109000       0.00000000      10.44071000      -0.01051500       0.06953000      -0.08154800
C        3.55069000       3.68996000      10.44071000      -0.05611300       0.04321600      -0.08150200
C        1.42034000       2.45995000      10.40963000       0.28124900       0.49553700      -0.47490800
C       -0.71006000       6.14991000      10.44071000      -0.05585000      -0.03557100      -0.08152500
C        5.68114000       2.45995000      10.44071000      -0.01027500      -0.06189300      -0.08151800
C        3.55074000       6.14991000      10.44125000      -0.09611200      -0.15790300      -0.20511700
Li       0.71015000       1.23001000      11.82148000      -0.00009800      -0.00014200       1.16686400
49
Lattice="8.52159977 0.0 0.0 -4.260799885 7.379921881 0.0 0.0 0.0 24.0" Properties=species:S:1:pos:R:3:forces:R:3 stress="-0.005805452332312551 5.367697848259602e-06 0.0 5.367697848259602e-06 -0.00580364853617517 -2.621433832870969e-07 0.0 -2.621433832870969e-07 -0.004719641955719143" free_energy=-446.95160274 energy=-446.94853144 pbc="T T T"
C        0.00000000       0.00000000      13.63129000      -0.13051200      -0.22612400       0.43617600
C       -2.13040000       3.68996000      13.55722000       0.01405400      -0.00624400       0.11857800
C        4.26080000       0.00000000      13.55722000      -0.01237900       0.00901800       0.11857500
C        2.13040000       3.68996000      13.56735000       0.04775200       0.08263800       0.20380900
C        0.00000000       2.46002000      13.63126000      -0.13127200       0.22850800       0.43724600
C       -2.13040000       6.14998000      13.56736000       0.04706200      -0.08031100       0.20325400
C        4.26080000       2.46002000      13.55727000      -0.01316700      -0.00650100       0.11835300
C        2.13040000       6.14998000      13.55727000       0.01324500       0.00875400       0.11847800
C        2.13044000       1.23001000      13.63126000       0.26359100       0.00053100       0.43724200
C        0.00004000       4.91997000      13.55727000       0.00099800      -0.01469300       0.11835800
C        6.39124000       1.23001000      13.56736000      -0.09303200       0.00056000       0.20325700
C        4.26084000       4.91997000      13.55727000       0.00100100       0.01582000       0.11847800
C        7.10130000       2.46002000      13.57761000      -0.11586200       0.02689800       0.18486400
C       -3.55069000       6.14998000      13.57762000       0.03535800      -0.11633900       0.18502500
C        2.84050000       2.46002000      13.57761000       0.08379700       0.08619300       0.18510000
C        0.71010000       6.14998000      13.55693000       0.00102000      -0.00096900       0.00430500
C        0.71015000       1.23001000      13.75119000      -0.00084400      -0.00130600       0.12979000
C       -1.42025000       4.91997000      13.56234000      -0.01613200       0.02276700       0.04548900
C        4.97095000       1.23001000      13.56234000       0.02767100      -0.00253300       0.04548800
C        2.84055000       4.91997000      13.56235000      -0.01608600      -0.02775000       0.04581500
C        2.84059000       0.00000000      13.57761000       0.08109300      -0.08682000       0.18486000
C        0.71019000       3.68996000      13.57761000       0.03261700       0.11574300       0.18510300
C        7.10139000       0.00000000      13.57762000      -0.11856100      -0.02747700       0.18502500
C        4.97099000       3.68996000      13.55693000      -0.00146200       0.00047000       0.00430300
C        0.00000000       0.00000000      10.38903000      -0.25635600      -0.44547100      -0.35250700
C       -2.13040000       3.68996000      10.43731000       0.04372200       0.03684900      -0.09010800
C        4.26080000       0.00000000      10.43731000       0.01140800       0.05546400      -0.09010200
C        2.13040000       3.68996000      10.43276000       0.10686800       0.18354100      -0.16625500
C        0.00000000       2.46002000      10.38908000      -0.25541000       0.44132100      -0.35205300
C       -2.13040000       6.14998000      10.43274000       0.10768000      -0.18772300      -0.16530200
C        4.26080000       2.46002000      10.43728000       0.01227800      -0.05973000      -0.08957600
C        2.13040000       6.14998000      10.43728000       0.04457800      -0.04104400      -0.08967500
C        2.13044000       1.23001000      10.38908000       0.51203100      -0.00277900      -0.35204200
C        0.00004000       4.91997000      10.43728000      -0.05563500      -0.02144100      -0.08958900
C        6.39124000       1.23001000      10.43274000      -0.21422000      -0.00284200      -0.16531300
C        4.26084000       4.91997000      10.43728000      -0.05563000       0.01585200      -0.08966600
C        7.81145000       1.23001000      10.38991000      -0.48594100       0.00007700      -0.35895300
C       -2.84055000       4.91997000      10.43723000       0.06330200       0.02543600      -0.10443600
C        3.55065000       1.23001000      10.43211000       0.18528800      -0.00080900      -0.17262700
C        1.42025000       4.91997000      10.43723000       0.06325800      -0.02710000      -0.10441200
C        1.42030000       0.00000000      10.38991000       0.24357500      -0.42118700      -0.35895000
C       -0.71010000       3.68996000      10.43211000      -0.09287500       0.15962200      -0.17263800
C        5.68109000       0.00000000      10.43723000      -0.00917400       0.06710600      -0.10443500
C        3.55069000       3.68996000      10.43723000      -0.05467100       0.04084600      -0.10440400
C        1.42034000       2.45995000      10.38992000       0.24212900       0.42784300      -0.35862400
C       -0.71006000       6.14991000      10.43723000      -0.05440500      -0.03315500      -0.10438400
C        5.68114000       2.45995000      10.43723000      -0.00894300      -0.05941300      -0.10436600
C        3.55074000       6.14991000      10.43209000      -0.09270700      -0.15194700      -0.17310500
Li       0.71014000       1.23000000      11.86418000      -0.00010200      -0.00015200       0.29655300
49
Lattice="8.52159977 0.0 0.0 -4.260799885 7.379921881 0.0 0.0 0.0 24.0" Properties=species:S:1:pos:R:3:forces:R:3 stress="-0.005381753726811091 5.373939357385485e-06 3.744905475529955e-08 5.373939357385485e-06 -0.00538026824763913 -9.986414601413215e-08 3.744905475529955e-08 -9.986414601413215e-08 -0.0033411796992313223" free_energy=-447.18069432 energy=-447.17790925 pbc="T T T"
C        0.00000000       0.00000000      13.68948000      -0.16778200      -0.29066400       0.03585200
C       -2.13040000       3.68996000      13.57389000       0.02222000      -0.01345500      -0.02177700
C        4.26080000       0.00000000      13.57389000      -0.02272000       0.01249200      -0.02178100
C        2.13040000       3.68996000      13.59510000       0.05082400       0.08797100       0.11875300
C        0.00000000       2.46002000      13.68958000      -0.16871600       0.29343300       0.03307000
C       -2.13040000       6.14998000      13.59502000       0.05009900      -0.08543100       0.11817200
C        4.26080000       2.46002000      13.57391000      -0.02352100      -0.00983300      -0.02281200
C        2.13040000       6.14998000      13.57393000       0.02139100       0.01610600      -0.02252700
C        2.13044000       1.23001000      13.68958000       0.33852700       0.00057300       0.03306300
C        0.00004000       4.91997000      13.57391000       0.00328000      -0.02531500      -0.02281000
C        6.39124000       1.23001000      13.59502000      -0.09899700       0.00063700       0.11817100
C        4.26084000       4.91997000      13.57393000       0.00328700       0.02655600      -0.02253100
C        7.10130000       2.46002000      13.61222000      -0.10473600       0.03323300       0.22386200
C       -3.55069000       6.14998000      13.61225000       0.02449800      -0.11172200       0.22286100
C        2.84050000       2.46002000      13.61224000       0.08526900       0.07264700       0.22431500
C        0.71010000       6.14998000      13.55629000       0.00105600      -0.00091300       0.18392800
C        0.71015000       1.23001000      13.77488000      -0.00125700      -0.00203800       0.91342400
C       -1.42025000       4.91997000      13.56914000      -0.01860800       0.02720500       0.15642500
C        4.97095000       1.23001000      13.56914000       0.03276300      -0.00246100       0.15642200
C        2.84055000       4.91997000      13.56919000      -0.01854900      -0.03202000       0.15664800
C        2.84059000       0.00000000      13.61222000       0.08102800      -0.07402300       0.22386200
C        0.71019000       3.68996000      13.61225000       0.02016100       0.11023500       0.22431900
C        7.10139000       0.00000000      13.61224000      -0.10912100      -0.03458100       0.22286400
C        4.97099000       3.68996000      13.55629000      -0.00142100       0.00052500       0.18393000
C        0.00000000       0.00000000      10.33406000      -0.21436200      -0.37279900      -0.14496700
C       -2.13040000       3.68996000      10.42353000       0.04733600       0.03237300      -0.08559300
C        4.26080000       0.00000000      10.42353000       0.00575800       0.05634000      -0.08559000
C        2.13040000       3.68996000      10.40629000       0.09036600       0.15491600      -0.18875100
C        0.00000000       2.46002000      10.33420000      -0.21337800       0.36871100      -0.14695100
C       -2.13040000       6.14998000      10.40640000       0.09107300      -0.15884200      -0.18874500
C        4.26080000       2.46002000      10.42358000       0.00659000      -0.06051500      -0.08483700
C        2.13040000       6.14998000      10.42356000       0.04827300      -0.03641300      -0.08530300
C        2.13044000       1.23001000      10.33420000       0.42818600      -0.00272000      -0.14694100
C        0.00004000       4.91997000      10.42357000      -0.05344000      -0.02677700      -0.08486800
C        6.39124000       1.23001000      10.40640000      -0.18087200      -0.00279900      -0.18874200
C        4.26084000       4.91997000      10.42357000      -0.05343900       0.02135200      -0.08527400
C        7.81145000       1.23001000      10.33434000      -0.40686600      -0.00072200      -0.13862600
C       -2.84055000       4.91997000      10.42218000       0.05942700       0.02949700      -0.05563200
C        3.55065000       1.23001000      10.40514000       0.15961900      -0.00013700      -0.16460700
C        1.42025000       4.91997000      10.42219000       0.05937300      -0.03075600      -0.05601200
C        1.42030000       0.00000000      10.33434000       0.20329100      -0.35308300      -0.13861100
C       -0.71010000       3.68996000      10.40513000      -0.07950400       0.13775400      -0.16463300
C        5.68109000       0.00000000      10.42218000      -0.00375600       0.06580200      -0.05564400
C        3.55069000       3.68996000      10.42219000      -0.05593400       0.03566900      -0.05599100
C        1.42034000       2.45995000      10.33440000       0.20331200       0.36069800      -0.13907100
C       -0.71006000       6.14991000      10.42219000      -0.05586700      -0.02800400      -0.05560100
C        5.68114000       2.45995000      10.42219000      -0.00375000      -0.05810700      -0.05557600
C        3.55074000       6.14991000      10.40505000      -0.08037500      -0.13056500      -0.16459100
Li       0.71013000       1.22998000      11.92002000      -0.00003600      -0.00002900      -0.65454600
49
Lattice="8.52159977 0.0 0.0 -4.260799885 7.379921881 0.0 0.0 0.0 24.0" Properties=species:S:1:pos:R:3:forces:R:3 stress="-0.0048983613280296845 5.411388412140786e-06 2.995924380423964e-07 5.411388412140786e-06 -0.004896932022439857 4.369056388118281e-07 2.995924380423964e-07 4.369056388118281e-07 -0.0020494993856297818" free_energy=-447.30753486 energy=-447.30465002 pbc="T T T"
C        0.00000000       0.00000000      13.72229000      -0.17007200      -0.29463400       0.05179400
C       -2.13040000       3.68996000      13.57995000       0.03684500      -0.02729600       0.10026000
C        4.26080000       0.00000000      13.57995000      -0.04201800       0.01823600       0.10025700
C        2.13040000       3.68996000      13.61326000       0.04986400       0.08630800       0.16935000
C        0.00000000       2.46002000      13.72232000      -0.17093000       0.29715400       0.04990200
C       -2.13040000       6.14998000      13.61311000       0.04910800      -0.08376900       0.16912400
C        4.26080000       2.46002000      13.57991000      -0.04290400      -0.01564200       0.09987800
C        2.13040000       6.14998000      13.57995000       0.03602700       0.02987400       0.09963200
C        2.13044000       1.23001000      13.72231000       0.34285500       0.00051500       0.04989600
C        0.00004000       4.91997000      13.57991000       0.00794100      -0.04500500       0.09987800
C        6.39124000       1.23001000      13.61312000      -0.09706200       0.00061100       0.16912100
C        4.26084000       4.91997000      13.57995000       0.00789400       0.04611300       0.09962800
C        7.10130000       2.46002000      13.63775000      -0.10715500       0.04414700       0.11288300
C       -3.55069000       6.14998000      13.63775000       0.01615800      -0.11869800       0.11254100
C        2.84050000       2.46002000      13.63781000       0.09569300       0.06947900       0.11298100
C        0.71010000       6.14998000      13.56462000       0.00104800      -0.00092700       0.08133300
C        0.71015000       1.23001000      13.81361000      -0.00138100      -0.00226400       0.69486500
C       -1.42025000       4.91997000      13.57969000      -0.02072100       0.03117700       0.09699500
C        4.97095000       1.23001000      13.57969000       0.03726200      -0.00230600       0.09699100