49
Lattice="8.52159977 0.0 0.0 -4.260799885 7.379921881 0.0 0.0 0.0 24.0" Properties=species:S:1:pos:R:3:forces:R:3 stress="-0.006670594153760354 5.767154432316131e-06 -6.241509125883259e-09 5.767154432316131e-06 -0.006669764033046611 3.1207545629416294e-08 -6.241509125883259e-09 3.1207545629416294e-08 0.004443823425937236" free_energy=-447.77022184 energy=-447.76852541 pbc="T T T"
C        0.00000000       0.00000000      14.00000000      -0.13659300      -0.23656500      -0.04778400
C       -2.13040000       3.68996000      14.00000000      -0.00127600      -0.00061200      -0.02631100
C        4.26080000       0.00000000      14.00000000       0.00008900      -0.00140000      -0.02631100
C        2.13040000       3.68996000      14.00000000       0.04991300       0.08647500      -0.00966600
C        0.00000000       2.46002000      14.00000000      -0.13743300       0.23917900      -0.04642400
C       -2.13040000       6.14998000      14.00000000       0.04909300      -0.08383100      -0.00831000
C        4.26080000       2.46002000      14.00000000      -0.00073100       0.00402600      -0.02496100
C        2.13040000       6.14998000      14.00000000      -0.00207600       0.00325500      -0.02496100
C        2.13044000       1.23001000      14.00000000       0.27583300       0.00057700      -0.04642300
C        0.00004000       4.91997000      14.00000000       0.00383200       0.00139200      -0.02496000
C        6.39124000       1.23001000      14.00000000      -0.09716500       0.00061400      -0.00831100
C        4.26084000       4.91997000      14.00000000       0.00383700      -0.00016000      -0.02496000
C        7.10130000       2.46002000      14.00000000      -0.14578700       0.04879900      -0.02740100
C       -3.55069000       6.14998000      14.00000000       0.03136000      -0.15455900      -0.02740400
C        2.84050000       2.46002000      14.00000000       0.11889100       0.10055000      -0.02740100
C        0.71010000       6.14998000      14.00000000       0.00147800      -0.00172700      -0.01639000
C        0.71015000       1.23001000      14.00000000      -0.00108600      -0.00183900       0.77861200
C       -1.42025000       4.91997000      14.00000000      -0.01576800       0.02363100      -0.02350800
C        4.97095000       1.23001000      14.00000000       0.02831400      -0.00182000      -0.02350800
C        2.84055000       4.91997000      14.00000000      -0.01576500      -0.02726500      -0.02350600
C        2.84059000       0.00000000      14.00000000       0.11512100      -0.10183400      -0.02740100
C        0.71019000       3.68996000      14.00000000       0.02759800       0.15325500      -0.02740100
C        7.10139000       0.00000000      14.00000000      -0.14956900      -0.05010300      -0.02740400
C        4.97099000       3.68996000      14.00000000      -0.00226800       0.00043800      -0.01639000
C        0.00000000       0.00000000      10.00000000      -0.09139600      -0.15996600       0.03725700
C       -2.13040000       3.68996000      10.00000000       0.02406800       0.02729300       0.01844300
C        4.26080000       0.00000000      10.00000000       0.01309000       0.03360700       0.01844500
C        2.13040000       3.68996000      10.00000000       0.09123400       0.15631100       0.05074400
C        0.00000000       2.46002000      10.00000000      -0.09046200       0.15561800       0.03586800
C       -2.13040000       6.14998000      10.00000000       0.09207800      -0.16064100       0.04938100
C        4.26080000       2.46002000      10.00000000       0.01395700      -0.03798600       0.01709300
C        2.13040000       6.14998000      10.00000000       0.02493100      -0.03163000       0.01709400
C        2.13044000       1.23001000      10.00000000       0.18233800      -0.00291100       0.03584500
C        0.00004000       4.91997000      10.00000000      -0.03752600      -0.00921000       0.01709300
C        6.39124000       1.23001000      10.00000000      -0.18282100      -0.00289600       0.04937500
C        4.26084000       4.91997000      10.00000000      -0.03753500       0.00346500       0.01709300
C        7.81145000       1.23001000      10.00000000      -0.17878000      -0.00003400       0.03746000
C       -2.84055000       4.91997000      10.00000000       0.03997300       0.00621300       0.01491500
C        3.55065000       1.23001000      10.00000000       0.18179600      -0.00000200       0.04708700
C        1.42025000       4.91997000      10.00000000       0.03995100      -0.00620900       0.01491700
C        1.42030000       0.00000000      10.00000000       0.08971800      -0.15515400       0.03746000
C       -0.71010000       3.68996000      10.00000000      -0.09058100       0.15710300       0.04709400
C        5.68109000       0.00000000      10.00000000      -0.01429100       0.03736400       0.01491400
C        3.55069000       3.68996000      10.00000000      -0.02505700       0.03116200       0.01491200
C        1.42034000       2.45995000      10.00000000       0.08862800       0.16230600       0.03745600
C       -0.71006000       6.14991000      10.00000000      -0.02608900      -0.02401800       0.01491200
C        5.68114000       2.45995000      10.00000000      -0.01534700      -0.03023400       0.01490900
C        3.55074000       6.14991000      10.00000000      -0.09164400      -0.14996700       0.04709900
Li       0.71015000       1.23001000      12.00000000      -0.00007000      -0.00006200      -0.89837900
49
Lattice="8.52159977 0.0 0.0 -4.260799885 7.379921881 0.0 0.0 0.0 24.0" Properties=species:S:1:pos:R:3:forces:R:3 stress="-0.0066699887273751444 5.86077706920438e-06 4.369056388118281e-08 5.86077706920438e-06 -0.006669252229298289 1.1234716426589864e-07 4.369056388118281e-08 1.1234716426589864e-07 0.004799370993293177" free_energy=-447.81554782 energy=-447.81385419 pbc="T T T"
C        0.00000000       0.00000000      13.99769000      -0.12467000      -0.21591400       0.16541400
C       -2.13040000       3.68996000      13.99873000      -0.00143900      -0.00013900      -0.04376500
C        4.26080000       0.00000000      13.99873000       0.00057900      -0.00130400      -0.04376500
C        2.13040000       3.68996000      13.99953000       0.04708700       0.08158000      -0.00472200
C        0.00000000       2.46002000      13.99776000      -0.12552800       0.21859900       0.16603600
C       -2.13040000       6.14998000      13.99960000       0.04626800      -0.07891400      -0.00398100
C        4.26080000       2.46002000      13.99880000      -0.00023500       0.00396000      -0.04307800
C        2.13040000       6.14998000      13.99880000      -0.00223500       0.00281800      -0.04308600
C        2.13044000       1.23001000      13.99776000       0.25205900       0.00059700       0.16603600
C        0.00004000       4.91997000      13.99880000       0.00352800       0.00178700      -0.04307800
C        6.39124000       1.23001000      13.99960000      -0.09149400       0.00062400      -0.00398100
C        4.26084000       4.91997000      13.99880000       0.00353900      -0.00051700      -0.04308600
C        7.10130000       2.46002000      13.99868000      -0.14798800       0.04536600      -0.04609500
C       -3.55069000       6.14998000      13.99868000       0.03546500      -0.15480900      -0.04609100
C        2.84050000       2.46002000      13.99868000       0.11707400       0.10417100      -0.04610300
C        0.71010000       6.14998000      13.99921000       0.00149400      -0.00173000      -0.02429500
C        0.71015000       1.23001000      14.03756000      -0.00155000      -0.00264200      -0.05931400
C       -1.42025000       4.91997000      13.99887000      -0.01342700       0.01965800      -0.01781900
C        4.97095000       1.23001000      13.99887000       0.02370200      -0.00177900      -0.01782000
C        2.84055000       4.91997000      13.99887000      -0.01342000      -0.02320200      -0.01776700
C        2.84059000       0.00000000      13.99868000       0.11324700      -0.10545600      -0.04609400
C        0.71019000       3.68996000      13.99868000       0.03164100       0.15349500      -0.04610300
C        7.10139000       0.00000000      13.99868000      -0.15183800      -0.04667200      -0.04609200
C        4.97099000       3.68996000      13.99921000      -0.00227900       0.00045100      -0.02429600
C        0.00000000       0.00000000      10.00180000      -0.09708200      -0.16983600       0.03213500
C       -2.13040000       3.68996000      10.00089000       0.02553200       0.02913600       0.02275800
C        4.26080000       0.00000000      10.00089000       0.01397200       0.03578500       0.02275700
C        2.13040000       3.68996000      10.00245000       0.09440200       0.16177900       0.03907600
C        0.00000000       2.46002000      10.00173000      -0.09614400       0.16548400       0.03141600
C       -2.13040000       6.14998000      10.00238000       0.09524700      -0.16609400       0.03839500
C        4.26080000       2.46002000      10.00082000       0.01483700      -0.04016300       0.02207400
C        2.13040000       6.14998000      10.00082000       0.02641400      -0.03346500       0.02207900
C        2.13044000       1.23001000      10.00173000       0.19374800      -0.00291600       0.03140400
C        0.00004000       4.91997000      10.00082000      -0.03982800      -0.00955100       0.02207800
C        6.39124000       1.23001000      10.00238000      -0.18910600      -0.00289400       0.03839500
C        4.26084000       4.91997000      10.00082000      -0.03984500       0.00381400       0.02207400
C        7.81145000       1.23001000      10.00181000      -0.19006500       0.00005300       0.03256000
C       -2.84055000       4.91997000      10.00072000       0.04233300       0.00667300       0.02372500
C        3.55065000       1.23001000      10.00227000       0.18786800       0.00008400       0.03891000
C        1.42025000       4.91997000      10.00072000       0.04231000      -0.00658500       0.02371900
C        1.42030000       0.00000000      10.00181000       0.09541700      -0.16486900       0.03255700
C       -0.71010000       3.68996000      10.00227000      -0.09356300       0.16242100       0.03891900
C        5.68109000       0.00000000      10.00072000      -0.01509000       0.03965200       0.02372400
C        3.55069000       3.68996000      10.00072000      -0.02658100       0.03303100       0.02371600
C        1.42034000       2.45995000      10.00181000       0.09423000       0.17204000       0.03257300
C       -0.71006000       6.14991000      10.00072000      -0.02764300      -0.02584200       0.02371300
C        5.68114000       2.45995000      10.00072000      -0.01617700      -0.03247900       0.02370700
C        3.55074000       6.14991000      10.00227000      -0.09473900      -0.15529500       0.03893600
Li       0.71014000       1.23001000      11.95666000      -0.00002700       0.00001100      -0.48845600
49
Lattice="8.52159977 0.0 0.0 -4.260799885 7.379921881 0.0 0.0 0.0 24.0" Properties=species:S:1:pos:R:3:forces:R:3 stress="-0.0066868408020150285 5.904467633085562e-06 1.2483018251766519e-08 5.904467633085562e-06 -0.006686160477520308 6.241509125883259e-08 1.2483018251766519e-08 6.241509125883259e-08 0.004823900124157897" free_energy=-447.83025847 energy=-447.82856599 pbc="T T T"
C        0.00000000       0.00000000      14.00596000      -0.12792400      -0.22155100       0.01878300
C       -2.13040000       3.68996000      13.99654000      -0.00176600       0.00265900      -0.04216000
C        4.26080000       0.00000000      13.99654000       0.00316600      -0.00018900      -0.04216000
C        2.13040000       3.68996000      13.99930000       0.04550700       0.07884100      -0.03565100
C        0.00000000       2.46002000      14.00606000      -0.12879000       0.22425700       0.01909400
C       -2.13040000       6.14998000      13.99940000       0.04468400      -0.07617100      -0.03532700
C        4.26080000       2.46002000      13.99664000       0.00235100       0.00284700      -0.04185100
C        2.13040000       6.14998000      13.99664000      -0.00255900       0.00002600      -0.04182800
C        2.13044000       1.23001000      14.00606000       0.25859100       0.00060100       0.01909400
C        0.00004000       4.91997000      13.99664000       0.00127200       0.00347000      -0.04185100
C        6.39124000       1.23001000      13.99940000      -0.08832600       0.00062300      -0.03532800
C        4.26084000       4.91997000      13.99664000       0.00128400      -0.00219300      -0.04182800
C        7.10130000       2.46002000      13.99637000      -0.14079700       0.04367900       0.02051200
C       -3.55069000       6.14998000      13.99637000       0.03334600      -0.14786600       0.02050300
C        2.84050000       2.46002000      13.99637000       0.11211300       0.09873000       0.02049800
C        0.71010000       6.14998000      13.99800000       0.00150900      -0.00175500      -0.05489800
C        0.71015000       1.23001000      14.03460000      -0.00153800      -0.00262300       0.07408800
C       -1.42025000       4.91997000      13.99798000      -0.01260700       0.01827800      -0.03425500
C        4.97095000       1.23001000      13.99798000       0.02209600      -0.00175900      -0.03425600
C        2.84055000       4.91997000      13.99798000      -0.01259600      -0.02177500      -0.03427200
C        2.84059000       0.00000000      13.99637000       0.10818900      -0.10007200       0.02051200
C        0.71019000       3.68996000      13.99637000       0.02941000       0.14647800       0.02049800
C        7.10139000       0.00000000      13.99637000      -0.14476600      -0.04503500       0.02050200
C        4.97099000       3.68996000      13.99800000      -0.00231000       0.00045100      -0.05489800
C        0.00000000       0.00000000      10.00340000      -0.10088000      -0.17642500       0.02791000
C       -2.13040000       3.68996000      10.00203000       0.02624500       0.03028000       0.02691100
C        4.26080000       0.00000000      10.00203000       0.01461600       0.03696800       0.02690900
C        2.13040000       3.68996000      10.00440000       0.09626600       0.16499500       0.03436300
C        0.00000000       2.46002000      10.00330000      -0.09993700       0.17205200       0.02756900
C       -2.13040000       6.14998000      10.00430000       0.09711100      -0.16931600       0.03406300
C        4.26080000       2.46002000      10.00193000       0.01547800      -0.04136100       0.02658200
C        2.13040000       6.14998000      10.00193000       0.02713800      -0.03461900       0.02659600
C        2.13044000       1.23001000      10.00330000       0.20134500      -0.00292800       0.02756100
C        0.00004000       4.91997000      10.00193000      -0.04117300      -0.00960300       0.02658900
C        6.39124000       1.23001000      10.00430000      -0.19281500      -0.00290000       0.03406300
C        4.26084000       4.91997000      10.00193000      -0.04119400       0.00385500       0.02659200
C        7.81145000       1.23001000      10.00343000      -0.19759900       0.00010900       0.02750800
C       -2.84055000       4.91997000      10.00190000       0.04368400       0.00683400       0.02631300
C        3.55065000       1.23001000      10.00422000       0.19142800       0.00014000       0.03335100
C        1.42025000       4.91997000      10.00190000       0.04366000      -0.00667600       0.02630400
C        1.42030000       0.00000000      10.00343000       0.09922200      -0.17135500       0.02750400
C       -0.71010000       3.68996000      10.00422000      -0.09530600       0.16554100       0.03336000
C        5.68109000       0.00000000      10.00190000      -0.01563600       0.04091100       0.02631400
C        3.55069000       3.68996000      10.00190000      -0.02734600       0.03416100       0.02630000
C        1.42034000       2.45995000      10.00343000       0.09795700       0.17851100       0.02751100
C       -0.71006000       6.14991000      10.00190000      -0.02845700      -0.02698200       0.02630300
C        5.68114000       2.45995000      10.00190000      -0.01677300      -0.03374700       0.02629800
C        3.55074000       6.14991000      10.00422000      -0.09656700      -0.15844800       0.03338000
Li       0.71014000       1.23001000      11.93225000      -0.00000300       0.00005200      -0.36967700
49
Lattice="8.52159977 0.0 0.0 -4.260799885 7.379921881 0.0 0.0 0.0 24.0" Properties=species:S:1:pos:R:3:forces:R:3 stress="-0.006664352644634471 6.010573288225577e-06 1.8724527377649774e-08 6.010573288225577e-06 -0.00666370352768538 6.865660038471585e-08 1.8724527377649774e-08 6.865660038471585e-08 0.004917947183666707" free_energy=-447.84396228 energy=-447.84227061 pbc="T T T"
C        0.00000000       0.00000000      14.00988000      -0.12679300      -0.21959300      -0.00567200
C       -2.13040000       3.68996000      13.99268000      -0.00190900       0.00452300      -0.02738200
C        4.26080000       0.00000000      13.99268000       0.00485200       0.00061900      -0.02738200
C        2.13040000       3.68996000      13.99651000       0.04348800       0.07534500      -0.00508700
C        0.00000000       2.46002000      14.01001000      -0.12767400       0.22232400      -0.00570000
C       -2.13040000       6.14998000      13.99665000       0.04267400      -0.07269700      -0.00514900
C        4.26080000       2.46002000      13.99281000       0.00405100       0.00203700      -0.02751500
C        2.13040000       6.14998000      13.99281000      -0.00271000      -0.00184900      -0.02749900
C        2.13044000       1.23001000      14.01001000       0.25635900       0.00060100      -0.00570000
C        0.00004000       4.91997000      13.99281000      -0.00028000       0.00453700      -0.02751500
C        6.39124000       1.23001000      13.99665000      -0.08431300       0.00061900      -0.00515000
C        4.26084000       4.91997000      13.99281000      -0.00026400      -0.00326100      -0.02749900
C        7.10130000       2.46002000      13.99724000      -0.13515100       0.04179000       0.00160500
C       -3.55069000       6.14998000      13.99724000       0.03216200      -0.14199900       0.00160800
C        2.84050000       2.46002000      13.99724000       0.10760400       0.09480200       0.00160700
C        0.71010000       6.14998000      13.99345000       0.00156000      -0.00186000      -0.06817400
C        0.71015000       1.23001000      14.03934000      -0.00155100      -0.00264500      -0.04678700
C       -1.42025000       4.91997000      13.99510000      -0.01134900       0.01621700      -0.05749000
C        4.97095000       1.23001000      13.99510000       0.01968100      -0.00169900      -0.05749000
C        2.84055000       4.91997000      13.99510000      -0.01133300      -0.01958500      -0.05749700
C        2.84059000       0.00000000      13.99724000       0.10372800      -0.09612500       0.00160500
C        0.71019000       3.68996000      13.99724000       0.02826200       0.14061100       0.00160700
C        7.10139000       0.00000000      13.99724000      -0.13909400      -0.04312600       0.00160700
C        4.97099000       3.68996000      13.99345000      -0.00242700       0.00044400      -0.06817400
C        0.00000000       0.00000000      10.00601000      -0.10698500      -0.18701500       0.02064600
C       -2.13040000       3.68996000      10.00442000       0.02741100       0.03182800       0.03354200
C        4.26080000       0.00000000      10.00442000       0.01538700       0.03874300       0.03354000
C        2.13040000       3.68996000      10.00760000       0.09894200       0.16961500       0.03163200
C        0.00000000       2.46002000      10.00587000      -0.10603400       0.18260000       0.02073400
C       -2.13040000       6.14998000      10.00747000       0.09978600      -0.17395100       0.03174500
C        4.26080000       2.46002000      10.00428000       0.01624700      -0.04316500       0.03361500
C        2.13040000       6.14998000      10.00428000       0.02831500      -0.03619000       0.03364100
C        2.13044000       1.23001000      10.00587000       0.21354400      -0.00294800       0.02073000
C        0.00004000       4.91997000      10.00428000      -0.04310300      -0.00985100       0.03362500
C        6.39124000       1.23001000      10.00747000      -0.19815200      -0.00291200       0.03174600
C        4.26084000       4.91997000      10.00428000      -0.04312800       0.00407800       0.03363700
C        7.81145000       1.23001000      10.00602000      -0.20971600       0.00018100       0.02110700
C       -2.84055000       4.91997000      10.00426000       0.04555400       0.00716300       0.03396700
C        3.55065000       1.23001000      10.00734000       0.19667600       0.00021400       0.03200100
C        1.42025000       4.91997000      10.00426000       0.04553000      -0.00689300       0.03395100
C        1.42030000       0.00000000      10.00602000       0.10532900      -0.18179800       0.02110500
C       -0.71010000       3.68996000      10.00734000      -0.09788000       0.17013600       0.03200900
C        5.68109000       0.00000000      10.00426000      -0.01629900       0.04270600       0.03396900
C        3.55069000       3.68996000      10.00426000      -0.02848400       0.03568300       0.03394600
C        1.42034000       2.45995000      10.00602000       0.10395700       0.18891400       0.02109500
C       -0.71006000       6.14991000      10.00426000      -0.02968500      -0.02854500       0.03396000
C        5.68114000       2.45995000      10.00426000      -0.01752900      -0.03558400       0.03395700
C        3.55074000       6.14991000      10.00734000      -0.09926200      -0.16310500       0.03202500
Li       0.71014000       1.23001000      11.89678000       0.00000400       0.00006200      -0.17869900
49
Lattice="8.52159977 0.0 0.0 -4.260799885 7.379921881 0.0 0.0 0.0 24.0" Properties=species:S:1:pos:R:3:forces:R:3 stress="-0.0065086269919436834 6.066746870358527e-06 3.744905475529955e-08 6.066746870358527e-06 -0.006507984116503718 1.0610565514001541e-07 3.744905475529955e-08 1.0610565514001541e-07 0.0050475146716109165" free_energy=-447.85025555 energy=-447.84856378 pbc="T T T"
C        0.00000000       0.00000000      14.01067000      -0.12766400      -0.22110200      -0.01863600
C       -2.13040000       3.68996000      13.98988000      -0.00192300       0.00521900      -0.02854200
C        4.26080000       0.00000000      13.98988000       0.00546100       0.00095600      -0.02854300
C        2.13040000       3.68996000      13.99558000       0.04242200       0.07349800      -0.02046200
C        0.00000000       2.46002000      14.01081000      -0.12854400       0.22382700      -0.01873800
C       -2.13040000       6.14998000      13.99573000       0.04161500      -0.07086900      -0.02058000
C        4.26080000       2.46002000      13.99001000       0.00467600       0.00169800      -0.02877700
C        2.13040000       6.14998000      13.99001000      -0.00273000      -0.00256000      -0.02876600
C        2.13044000       1.23001000      14.01081000       0.25809500       0.00059900      -0.01873800
C        0.00004000       4.91997000      13.99001000      -0.00088700       0.00490900      -0.02877700
C        6.39124000       1.23001000      13.99573000      -0.08220200       0.00061600      -0.02058000
C        4.26084000       4.91997000      13.99001000      -0.00087100      -0.00363300      -0.02876500
C        7.10130000       2.46002000      13.99742000      -0.13202300       0.04120800      -0.01049100
C       -3.55069000       6.14998000      13.99742000       0.03109400      -0.13898800      -0.01052200
C        2.84050000       2.46002000      13.99742000       0.10551900       0.09238100      -0.01050900
C        0.71010000       6.14998000      13.98772000       0.00162000      -0.00197900      -0.02322100
C        0.71015000       1.23001000      14.03690000      -0.00155000      -0.00264500      -0.05039400
C       -1.42025000       4.91997000      13.99046000      -0.01085800       0.01556600      -0.01808400
C        4.97095000       1.23001000      13.99046000       0.01887100      -0.00159900      -0.01808500
C        2.84055000       4.91997000      13.99047000      -0.01083600      -0.01872400      -0.01811100
C        2.84059000       0.00000000      13.99742000       0.10165900      -0.09370600      -0.01049000
C        0.71019000       3.68996000      13.99742000       0.02720700       0.13759600      -0.01050900
C        7.10139000       0.00000000      13.99742000      -0.13595300      -0.04254500      -0.01052200
C        4.97099000       3.68996000      13.98772000      -0.00256100       0.00043700      -0.02322100
C        0.00000000       0.00000000      10.00806000      -0.11066600      -0.19339800       0.01484700
C       -2.13040000       3.68996000      10.00730000       0.02812900       0.03267400       0.03679400
C        4.26080000       0.00000000      10.00730000       0.01576800       0.03978400       0.03679300
C        2.13040000       3.68996000      10.01055000       0.10046300       0.17224200       0.01015600
C        0.00000000       2.46002000      10.00791000      -0.10971200       0.18896200       0.01501300
C       -2.13040000       6.14998000      10.01042000       0.10130700      -0.17659000       0.01041400
C        4.26080000       2.46002000      10.00716000       0.01662900      -0.04422100       0.03695300
C        2.13040000       6.14998000      10.00716000       0.02903300      -0.03705000       0.03697800
C        2.13044000       1.23001000      10.00791000       0.22089800      -0.00295800       0.01501200
C        0.00004000       4.91997000      10.00716000      -0.04420100      -0.01005300       0.03696300
C        6.39124000       1.23001000      10.01042000      -0.20119200      -0.00291900       0.01041400
C        4.26084000       4.91997000      10.00716000      -0.04422500       0.00426400       0.03697300
C        7.81145000       1.23001000      10.00809000      -0.21702100       0.00022600       0.01482500
C       -2.84055000       4.91997000      10.00717000       0.04657600       0.00741200       0.03678800
C        3.55065000       1.23001000      10.01030000       0.19967200       0.00027600       0.01008600
C        1.42025000       4.91997000      10.00717000       0.04655200      -0.00701400       0.03677400
C        1.42030000       0.00000000      10.00809000       0.10901400      -0.18809400       0.01482500
C       -0.71010000       3.68996000      10.01030000      -0.09933300       0.17276700       0.01009400
C        5.68109000       0.00000000      10.00717000      -0.01660100       0.04372000       0.03679000
C        3.55069000       3.68996000      10.00717000      -0.02910800       0.03651200       0.03676700
C        1.42034000       2.45995000      10.00809000       0.10756500       0.19516700       0.01481200
C       -0.71006000       6.14991000      10.00717000      -0.03041500      -0.02943600       0.03678300
C        5.68114000       2.45995000      10.00717000      -0.01793900      -0.03666100       0.03678100
C        3.55074000       6.14991000      10.01031000      -0.10081400      -0.16579700       0.01010200
Li       0.71014000       1.23002000      11.87594000      -0.00001600       0.00002400      -0.08867600
49
Lattice="8.52159977 0.0 0.0 -4.260799885 7.379921881 0.0 0.0 0.0 24.0" Properties=species:S:1:pos:R:3:forces:R:3 stress="-0.006347583573477644 6.0854713977361766e-06 3.1207545629416294e-08 6.0854713977361766e-06 -0.00634695318105593 1.1234716426589864e-07 3.1207545629416294e-08 1.1234716426589864e-07 0.005153664017314814" free_energy=-447.85331334 energy=-447.85162138 pbc="T T T"
C        0.00000000       0.00000000      14.00987000      -0.12835100      -0.22229100      -0.02149200
C       -2.13040000       3.68996000      13.98697000      -0.00183900       0.00549700      -0.01621500
C        4.26080000       0.00000000      13.98697000       0.00565900       0.00116700      -0.01621500
C        2.13040000       3.68996000      13.99375000       0.04172500       0.07229300      -0.00938600
C        0.00000000       2.46002000      14.01000000      -0.12922600       0.22500900      -0.02154400
C       -2.13040000       6.14998000      13.99389000       0.04092200      -0.06966600      -0.00949100
C        4.26080000       2.46002000      13.98709000       0.00487900       0.00148300      -0.01653500
C        2.13040000       6.14998000      13.98709000      -0.00264800      -0.00284500      -0.01654800
C        2.13044000       1.23001000      14.01000000       0.25946000       0.00060000      -0.02154400
C        0.00004000       4.91997000      13.98709000      -0.00117400       0.00497800      -0.01653500
C        6.39124000       1.23001000      13.99389000      -0.08081400       0.00061800      -0.00949100
C        4.26084000       4.91997000      13.98709000      -0.00115900      -0.00370400      -0.01654800
C        7.10130000       2.46002000      13.99680000      -0.13021700       0.04098700      -0.02028800
C       -3.55069000       6.14998000      13.99680000       0.03037900      -0.13733500      -0.02034900
C        2.84050000       2.46002000      13.99680000       0.10444300       0.09091100      -0.02033800
C        0.71010000       6.14998000      13.98443000       0.00164000      -0.00201800      -0.02272100
C        0.71015000       1.23001000      14.03321000      -0.00153600      -0.00262100       0.00504300
C       -1.42025000       4.91997000      13.98791000      -0.01058700       0.01518100      -0.02174600