49
Lattice="8.52159977 0.0 0.0 -4.260799885 7.379921881 0.0 0.0 0.0 24.0" Properties=species:S:1:pos:R:3:forces:R:3 stress="-0.004702128281111915 5.74842990493848e-06 -0.0 5.74842990493848e-06 -0.004701304401907299 1.2483018251766518e-07 -0.0 1.2483018251766518e-07 -0.0010845371087317267" free_energy=-447.18485892 energy=-447.18307723 pbc="T T T"
C        0.00000000       0.00000000      13.70000000      -0.15559600      -0.26951200       0.16254200
C       -2.13040000       3.68996000      13.70000000       0.00808300      -0.00895300       0.01817100
C        4.26080000       0.00000000      13.70000000      -0.01179100       0.00252100       0.01817000
C        2.13040000       3.68996000      13.70000000       0.05279300       0.09143100       0.03272200
C        0.00000000       2.46002000      13.70000000      -0.15646000       0.27209500       0.16123900
C       -2.13040000       6.14998000      13.70000000       0.05198300      -0.08883800       0.03145900
C        4.26080000       2.46002000      13.70000000      -0.01260400       0.00006400       0.01690600
C        2.13040000       6.14998000      13.70000000       0.00729000       0.01155500       0.01690800
C        2.13044000       1.23001000      13.70000000       0.31388100       0.00054200       0.16124000
C        0.00004000       4.91997000      13.70000000       0.00636000      -0.01088800       0.01690900
C        6.39124000       1.23001000      13.70000000      -0.10292300       0.00059500       0.03146100
C        4.26084000       4.91997000      13.70000000       0.00636500       0.01208800       0.01691100
C        7.10130000       2.46002000      13.70000000      -0.15421200       0.03978400       0.02434300
C       -3.55069000       6.14998000      13.70000000       0.04338600      -0.15625500       0.02435200
C        2.84050000       2.46002000      13.70000000       0.11433100       0.11290500       0.02434700
C        0.71010000       6.14998000      13.70000000       0.00115700      -0.00118400       0.02849500
C        0.71015000       1.23001000      13.70000000      -0.00142400      -0.00238900       3.42864600
C       -1.42025000       4.91997000      13.70000000      -0.01868500       0.02762300       0.01939700
C        4.97095000       1.23001000      13.70000000       0.03320800      -0.00233900       0.01939800
C        2.84055000       4.91997000      13.70000000      -0.01867800      -0.03228600       0.01939900
C        2.84059000       0.00000000      13.70000000       0.11149800      -0.11362300       0.02434200
C        0.71019000       3.68996000      13.70000000       0.04054900       0.15550100       0.02434500
C        7.10139000       0.00000000      13.70000000      -0.15707900      -0.04052000       0.02435000
C        4.97099000       3.68996000      13.70000000      -0.00166000       0.00045000       0.02849300
C        0.00000000       0.00000000      10.30000000      -0.14231700      -0.24818700      -0.19441300
C       -2.13040000       3.68996000      10.30000000       0.03848800       0.03032900      -0.02451300
C        4.26080000       0.00000000      10.30000000       0.00853500       0.04759700      -0.02451000
C        2.13040000       3.68996000      10.30000000       0.10110600       0.17338900       0.01534600
C        0.00000000       2.46002000      10.30000000      -0.14139600       0.24383700      -0.19312000
C       -2.13040000       6.14998000      10.30000000       0.10194400      -0.17775400       0.01661500
C        4.26080000       2.46002000      10.30000000       0.00939600      -0.05201300      -0.02325000
C        2.13040000       6.14998000      10.30000000       0.03934600      -0.03469400      -0.02325000
C        2.13044000       1.23001000      10.30000000       0.28421600      -0.00290000      -0.19313900
C        0.00004000       4.91997000      10.30000000      -0.04736800      -0.02017400      -0.02325100
C        6.39124000       1.23001000      10.30000000      -0.20254900      -0.00291100       0.01661000
C        4.26084000       4.91997000      10.30000000      -0.04738100       0.01441200      -0.02325200
C        7.81145000       1.23001000      10.30000000      -0.27375000      -0.00056600      -0.17706900
C       -2.84055000       4.91997000      10.30000000       0.05157200       0.01846400      -0.02825500
C        3.55065000       1.23001000      10.30000000       0.19474800      -0.00052800       0.01245200
C        1.42025000       4.91997000      10.30000000       0.05154500      -0.01950200      -0.02825400
C        1.42030000       0.00000000      10.30000000       0.13671200      -0.23764500      -0.17706100
C       -0.71010000       3.68996000      10.30000000      -0.09754000       0.16807200       0.01245500
C        5.68109000       0.00000000      10.30000000      -0.00950800       0.05355000      -0.02825700
C        3.55069000       3.68996000      10.30000000      -0.04239700       0.03457500      -0.02826000
C        1.42034000       2.45995000      10.30000000       0.13662100       0.24539100      -0.17710900
C       -0.71006000       6.14991000      10.30000000      -0.04249900      -0.02689000      -0.02825000
C        5.68114000       2.45995000      10.30000000      -0.00963100      -0.04588300      -0.02825200
C        3.55074000       6.14991000      10.30000000      -0.09767300      -0.16040700       0.01246300
Li       0.71015000       1.23001000      12.00000000       0.00000600       0.00007100      -3.03701900
49
Lattice="8.52159977 0.0 0.0 -4.260799885 7.379921881 0.0 0.0 0.0 24.0" Properties=species:S:1:pos:R:3:forces:R:3 stress="-0.004838717466822744 5.84205254182673e-06 0.0 5.84205254182673e-06 -0.004837519097070575 4.369056388118281e-08 0.0 4.369056388118281e-08 0.0015028305673301708" free_energy=-447.49088199 energy=-447.48857432 pbc="T T T"
C        0.00000000       0.00000000      13.70784000      -0.06455600      -0.11182900       0.90993500
C       -2.13040000       3.68996000      13.70088000       0.00253100      -0.00955800      -0.05303100
C        4.26080000       0.00000000      13.70088000      -0.00953600      -0.00259100      -0.05303000
C        2.13040000       3.68996000      13.70158000       0.04788500       0.08292500       0.09495100
C        0.00000000       2.46002000      13.70778000      -0.06538000       0.11429600       0.90892300
C       -2.13040000       6.14998000      13.70152000       0.04716600      -0.08049300       0.09441100
C        4.26080000       2.46002000      13.70082000      -0.01033300       0.00514600      -0.05376400
C        2.13040000       6.14998000      13.70082000       0.00174700       0.01211300      -0.05375600
C        2.13044000       1.23001000      13.70778000       0.13168400       0.00051800       0.90891700
C        0.00004000       4.91997000      13.70082000       0.00962800      -0.00638200      -0.05376300
C        6.39124000       1.23001000      13.70152000      -0.09328500       0.00059300       0.09441100
C        4.26084000       4.91997000      13.70082000       0.00962200       0.00756500      -0.05375500
C        7.10130000       2.46002000      13.70117000      -0.15102900       0.04341500       0.00054100
C       -3.55069000       6.14998000      13.70117000       0.03860600      -0.15532600       0.00050600
C        2.84050000       2.46002000      13.70117000       0.11588100       0.10825500       0.00050700
C        0.71010000       6.14998000      13.70137000       0.00116000      -0.00123300       0.00359800
C        0.71015000       1.23001000      13.86541000      -0.00075900      -0.00123200      -1.29305800
C       -1.42025000       4.91997000      13.70094000      -0.01614900       0.02323800       0.03823900
C        4.97095000       1.23001000      13.70094000       0.02813700      -0.00233300       0.03823800
C        2.84055000       4.91997000      13.70094000      -0.01613700      -0.02787900       0.03845500
C        2.84059000       0.00000000      13.70117000       0.11304300      -0.10904700       0.00053800
C        0.71019000       3.68996000      13.70117000       0.03574000       0.15452200       0.00050600
C        7.10139000       0.00000000      13.70117000      -0.15389100      -0.04419200       0.00050500
C        4.97099000       3.68996000      13.70137000      -0.00171000       0.00042900       0.00359800
C        0.00000000       0.00000000      10.29062000      -0.19799400      -0.34453200      -0.28387900
C       -2.13040000       3.68996000      10.29882000       0.04216800       0.03507500      -0.01543300
C        4.26080000       0.00000000      10.29882000       0.01075700       0.05317700      -0.01543200
C        2.13040000       3.68996000      10.30074000       0.10995900       0.18877400      -0.03247500
C        0.00000000       2.46002000      10.29068000      -0.19707400       0.34027100      -0.28319300
C       -2.13040000       6.14998000      10.30080000       0.11078800      -0.19310400      -0.03174000
C        4.26080000       2.46002000      10.29888000       0.01162900      -0.05758100      -0.01469100
C        2.13040000       6.14998000      10.29888000       0.04302300      -0.03942100      -0.01469800
C        2.13044000       1.23001000      10.29068000       0.39549800      -0.00287000      -0.28319200
C        0.00004000       4.91997000      10.29888000      -0.05334200      -0.02100200      -0.01468900
C        6.39124000       1.23001000      10.30080000      -0.22031500      -0.00290900      -0.03174400
C        4.26084000       4.91997000      10.29888000      -0.05334700       0.01525100      -0.01470300
C        7.81145000       1.23001000      10.29146000      -0.38409000      -0.00040800      -0.28599500
C       -2.84055000       4.91997000      10.29864000       0.05796900       0.01981900      -0.01432700
C        3.55065000       1.23001000      10.30060000       0.20992200      -0.00058600      -0.03606100
C        1.42025000       4.91997000      10.29864000       0.05793400      -0.02088200      -0.01432900
C        1.42030000       0.00000000      10.29146000       0.19209000      -0.33314900      -0.28599000
C       -0.71010000       3.68996000      10.30060000      -0.10512600       0.18115100      -0.03605600
C        5.68109000       0.00000000      10.29864000      -0.01148600       0.05974600      -0.01432600
C        3.55069000       3.68996000      10.29864000      -0.04674500       0.03940200      -0.01433000
C        1.42034000       2.45995000      10.29146000       0.19161600       0.34054400      -0.28598100
C       -0.71006000       6.14991000      10.29864000      -0.04689500      -0.03181700      -0.01434500
C        5.68114000       2.45995000      10.29864000      -0.01165800      -0.05217900      -0.01434800
C        3.55074000       6.14991000      10.30060000      -0.10522800      -0.17353400      -0.03609100
Li       0.71015000       1.23001000      11.85349000      -0.00011600      -0.00015500       0.56542400
49
Lattice="8.52159977 0.0 0.0 -4.260799885 7.379921881 0.0 0.0 0.0 24.0" Properties=species:S:1:pos:R:3:forces:R:3 stress="-0.00499944880983249 5.817086505323197e-06 3.744905475529955e-08 5.817086505323197e-06 -0.004998506341954481 1.373132007694317e-07 3.744905475529955e-08 1.373132007694317e-07 0.001195735835318463" free_energy=-447.59139655 energy=-447.5893079 pbc="T T T"
C        0.00000000       0.00000000      13.73942000      -0.12610800      -0.21843500       0.19103200
C       -2.13040000       3.68996000      13.69904000       0.00575800      -0.00262500      -0.01450900
C        4.26080000       0.00000000      13.69904000      -0.00515000       0.00367200      -0.01450900
C        2.13040000       3.68996000      13.70487000       0.04643200       0.08041500       0.02613100
C        0.00000000       2.46002000      13.73932000      -0.12685500       0.22089200       0.19167300
C       -2.13040000       6.14998000      13.70479000       0.04565700      -0.07786800       0.02563500
C        4.26080000       2.46002000      13.69895000      -0.00595100      -0.00109100      -0.01489900
C        2.13040000       6.14998000      13.69895000       0.00497900       0.00521700      -0.01481900
C        2.13044000       1.23001000      13.73932000       0.25473200       0.00058100       0.19167100
C        0.00004000       4.91997000      13.69895000       0.00203300      -0.00570300      -0.01489900
C        6.39124000       1.23001000      13.70479000      -0.09026100       0.00060200       0.02563500
C        4.26084000       4.91997000      13.69895000       0.00203100       0.00691900      -0.01481900
C        7.10130000       2.46002000      13.70119000      -0.13034600       0.03271700       0.20646000
C       -3.55069000       6.14998000      13.70119000       0.03753300      -0.13198500       0.20641600
C        2.84050000       2.46002000      13.70119000       0.09627900       0.09571700       0.20642900
C        0.71010000       6.14998000      13.70150000       0.00117800      -0.00122200      -0.06656400
C        0.71015000       1.23001000      13.82053000      -0.00132100      -0.00221400       0.20098900
C       -1.42025000       4.91997000      13.70226000      -0.01426200       0.02007300      -0.00322500
C        4.97095000       1.23001000      13.70226000       0.02445500      -0.00228300      -0.00322600
C        2.84055000       4.91997000      13.70227000      -0.01425600      -0.02462400      -0.00321000
C        2.84059000       0.00000000      13.70119000       0.09344200      -0.09648600       0.20645800
C        0.71019000       3.68996000      13.70119000       0.03468900       0.13127500       0.20643000
C        7.10139000       0.00000000      13.70119000      -0.13313500      -0.03345300       0.20641500
C        4.97099000       3.68996000      13.70150000      -0.00170500       0.00044800      -0.06656400
C        0.00000000       0.00000000      10.28077000      -0.18526900      -0.32253300      -0.23358300
C       -2.13040000       3.68996000      10.29828000       0.04094200       0.03499400      -0.01027500
C        4.26080000       0.00000000      10.29828000       0.01132700       0.05206100      -0.01027400
C        2.13040000       3.68996000      10.29961000       0.10865500       0.18648600      -0.06751600
C        0.00000000       2.46002000      10.28085000      -0.18434000       0.31824900      -0.23317700
C       -2.13040000       6.14998000      10.29970000       0.10947900      -0.19079700      -0.06704900
C        4.26080000       2.46002000      10.29837000       0.01219400      -0.05645200      -0.00982700
C        2.13040000       6.14998000      10.29837000       0.04179700      -0.03933000      -0.00983700
C        2.13044000       1.23001000      10.28085000       0.37009600      -0.00287900      -0.23317200
C        0.00004000       4.91997000      10.29837000      -0.05262200      -0.01996400      -0.00982700
C        6.39124000       1.23001000      10.29970000      -0.21763300      -0.00290400      -0.06705400
C        4.26084000       4.91997000      10.29837000      -0.05263200       0.01422000      -0.00984000
C        7.81145000       1.23001000      10.28153000      -0.35868400      -0.00008600      -0.23422400
C       -2.84055000       4.91997000      10.29814000       0.05706700       0.01925900      -0.00895300
C        3.55065000       1.23001000      10.29935000       0.20746000      -0.00052600      -0.06680100
C        1.42025000       4.91997000      10.29814000       0.05703200      -0.02023200      -0.00895600
C        1.42030000       0.00000000      10.28153000       0.17962900      -0.31096500      -0.23422200
C       -0.71010000       3.68996000      10.29935000      -0.10387200       0.17906900      -0.06680000
C        5.68109000       0.00000000      10.29814000      -0.01154700       0.05870000      -0.00895100
C        3.55069000       3.68996000      10.29814000      -0.04575700       0.03895800      -0.00895400
C        1.42034000       2.45995000      10.28153000       0.17864300       0.31812200      -0.23419300
C       -0.71006000       6.14991000      10.29814000      -0.04592900      -0.03132000      -0.00895400
C        5.68114000       2.45995000      10.29814000      -0.01173800      -0.05107900      -0.00895100
C        3.55074000       6.14991000      10.29935000      -0.10400800      -0.17139000      -0.06687700
Li       0.71014000       1.23001000      11.87311000      -0.00014100      -0.00019700       0.05813600
49
Lattice="8.52159977 0.0 0.0 -4.260799885 7.379921881 0.0 0.0 0.0 24.0" Properties=species:S:1:pos:R:3:forces:R:3 stress="-0.005027360838643439 6.347614781023274e-06 -1.622792372729647e-06 6.347614781023274e-06 -0.00502595025758099 2.1845281940591405e-07 -1.622792372729647e-06 2.1845281940591405e-07 0.0012698412731700747" free_energy=-447.62622921 energy=-447.62421211 pbc="T T T"
C        0.00000000       0.00000000      13.74878000      -0.12576900      -0.21794300       0.21538400
C       -2.13040000       3.68996000      13.69833000       0.00747000      -0.00372800       0.02083600
C        4.26080000       0.00000000      13.69833000      -0.00687800       0.00455600       0.02083500
C        2.13040000       3.68996000      13.70615000       0.04616400       0.07985500       0.10377300
C        0.00000000       2.46002000      13.74871000      -0.12651500       0.22042500       0.21678500
C       -2.13040000       6.14998000      13.70604000       0.04538000      -0.07727100       0.10370200
C        4.26080000       2.46002000      13.69822000      -0.00769800      -0.00196500       0.02067800
C        2.13040000       6.14998000      13.69823000       0.00670600       0.00635100       0.02075700
C        2.13044000       1.23001000      13.74871000       0.25424000       0.00059400       0.21678300
C        0.00004000       4.91997000      13.69822000       0.00223200      -0.00770000       0.02067900
C        6.39124000       1.23001000      13.70604000      -0.08952400       0.00061200       0.10370200
C        4.26084000       4.91997000      13.69823000       0.00223300       0.00893400       0.02075700
C        7.10130000       2.46002000      13.71109000      -0.13171500       0.03459100       0.12081700
C       -3.55069000       6.14998000      13.71109000       0.03669800      -0.13472500       0.12052400
C        2.84050000       2.46002000      13.71109000       0.09915300       0.09574400       0.12089300
C        0.71010000       6.14998000      13.69831000       0.00119500      -0.00114300      -0.06295200
C        0.71015000       1.23001000      13.82989000      -0.00112000      -0.00196600       0.17296200
C       -1.42025000       4.91997000      13.70212000      -0.01394200       0.01963000      -0.02441500
C        4.97095000       1.23001000      13.70212000       0.02399700      -0.00227700      -0.02441600
C        2.84055000       4.91997000      13.70212000      -0.01394100      -0.02417700      -0.02436500
C        2.84059000       0.00000000      13.71109000       0.09583600      -0.09678500       0.12081500
C        0.71019000       3.68996000      13.71109000       0.03336100       0.13372800       0.12089400
C        7.10139000       0.00000000      13.71109000      -0.13500400      -0.03559600       0.12052400
C        4.97099000       3.68996000      13.69831000      -0.00156000       0.00045400      -0.06295300
C        0.00000000       0.00000000      10.26950000      -0.18114100      -0.31549600      -0.18820400
C       -2.13040000       3.68996000      10.29779000       0.04055600       0.03472600      -0.01345100
C        4.26080000       0.00000000      10.29779000       0.01137900       0.05154100      -0.01344800
C        2.13040000       3.68996000      10.29637000       0.10701700       0.18354300      -0.08399500
C        0.00000000       2.46002000      10.26961000      -0.18020100       0.31119100      -0.18820700
C       -2.13040000       6.14998000      10.29648000       0.10783000      -0.18782300      -0.08376700
C        4.26080000       2.46002000      10.29789000       0.01223900      -0.05592500      -0.01324000
C        2.13040000       6.14998000      10.29789000       0.04142200      -0.03904900      -0.01326600
C        2.13044000       1.23001000      10.26961000       0.36201000      -0.00288200      -0.18820000
C        0.00004000       4.91997000      10.29789000      -0.05209600      -0.01971500      -0.01324300
C        6.39124000       1.23001000      10.29648000      -0.21414100      -0.00289800      -0.08377500
C        4.26084000       4.91997000      10.29789000      -0.05211000       0.01398200      -0.01326200
C        7.81145000       1.23001000      10.27024000      -0.35019100      -0.00091500      -0.19200600
C       -2.84055000       4.91997000      10.29771000       0.05635000       0.01886500      -0.01349700
C        3.55065000       1.23001000      10.29614000       0.20478200      -0.00042900      -0.08432500
C        1.42025000       4.91997000      10.29771000       0.05631300      -0.01980300      -0.01350800
C        1.42030000       0.00000000      10.27024000       0.17473800      -0.30406700      -0.19200300
C       -0.71010000       3.68996000      10.29614000      -0.10237300       0.17675700      -0.08432800
C        5.68109000       0.00000000      10.29771000      -0.01145300       0.05783800      -0.01349600
C        3.55069000       3.68996000      10.29771000      -0.04494900       0.03850600      -0.01350600
C        1.42034000       2.45995000      10.27024000       0.17252800       0.31220900      -0.19420800
C       -0.71006000       6.14991000      10.29771000      -0.04513400      -0.03085400      -0.01349400
C        5.68114000       2.45995000      10.29771000      -0.01165600      -0.05020200      -0.01348500
C        3.55074000       6.14991000      10.29613000      -0.10264200      -0.16911300      -0.08439700
Li       0.71014000       1.23000000      11.87602000      -0.00007700      -0.00018500       0.02531200
49
Lattice="8.52159977 0.0 0.0 -4.260799885 7.379921881 0.0 0.0 0.0 24.0" Properties=species:S:1:pos:R:3:forces:R:3 stress="-0.005093215001430634 5.0493808828395555e-06 2.0659395206673584e-06 5.0493808828395555e-06 -0.005097740095546899 -3.6824903842711227e-07 2.0659395206673584e-06 -3.6824903842711227e-07 0.0015223602493850599" free_energy=-447.6834639 energy=-447.68159191 pbc="T T T"
C        0.00000000       0.00000000      13.77356000      -0.13211300      -0.22926400       0.09247800
C       -2.13040000       3.68996000      13.70030000       0.01115100      -0.00643100      -0.00575300
C        4.26080000       0.00000000      13.70030000      -0.01076900       0.00622400      -0.00575400
C        2.13040000       3.68996000      13.71720000       0.04706000       0.08107300       0.05957800
C        0.00000000       2.46002000      13.77365000      -0.13293900       0.23187500       0.09271600
C       -2.13040000       6.14998000      13.71709000       0.04626800      -0.07849700       0.05931300
C        4.26080000       2.46002000      13.70017000      -0.01163400      -0.00369500      -0.00562600
C        2.13040000       6.14998000      13.70018000       0.01039600       0.00902400      -0.00577600
C        2.13044000       1.23001000      13.77364000       0.26765700       0.00058800       0.09271700
C        0.00004000       4.91997000      13.70017000       0.00299200      -0.01214000      -0.00562500
C        6.39124000       1.23001000      13.71709000      -0.09074000       0.00060200       0.05931400
C        4.26084000       4.91997000      13.70018000       0.00299300       0.01329800      -0.00577600
C        7.10130000       2.46002000      13.72596000      -0.12631300       0.03691600       0.12430600
C       -3.55069000       6.14998000      13.72592000       0.03227900      -0.13226700       0.12343800
C        2.84050000       2.46002000      13.72596000       0.09946800       0.08962300       0.12439300
C        0.71010000       6.14998000      13.69104000       0.00130000      -0.00103600       0.03798600
C        0.71015000       1.23001000      13.84962000      -0.00069300      -0.00156700       0.19864300
C       -1.42025000       4.91997000      13.69957000      -0.01459000       0.02092400       0.05398400
C        4.97095000       1.23001000      13.69957000       0.02573800      -0.00236100       0.05398200
C        2.84055000       4.91997000      13.69958000      -0.01459100      -0.02564500       0.05387000
C        2.84059000       0.00000000      13.72596000       0.09544500      -0.09111600       0.12430500
C        0.71019000       3.68996000      13.72596000       0.02819900       0.13076900       0.12439500
C        7.10139000       0.00000000      13.72592000      -0.13036900      -0.03836400       0.12343800
C        4.97099000       3.68996000      13.69104000      -0.00122400       0.00042700       0.03798700
C        0.00000000       0.00000000      10.24726000      -0.17589900      -0.30677800      -0.14024900
C       -2.13040000       3.68996000      10.29627000       0.04122900       0.03385700      -0.03159300
C        4.26080000       0.00000000      10.29627000       0.01060000       0.05151200      -0.03158900
C        2.13040000       3.68996000      10.28690000       0.10341100       0.17694100      -0.07409200
C        0.00000000       2.46002000      10.24738000      -0.17489900       0.30232500      -0.14386000
C       -2.13040000       6.14998000      10.28704000       0.10428000      -0.18137300      -0.07253700
C        4.26080000       2.46002000      10.29641000       0.01143700      -0.05596900      -0.03185100
C        2.13040000       6.14998000      10.29640000       0.04212800      -0.03822700      -0.03170100
C        2.13044000       1.23001000      10.24738000       0.35200100      -0.00290800      -0.14386000
C        0.00004000       4.91997000      10.29641000      -0.05142600      -0.02060900      -0.03186400
C        6.39124000       1.23001000      10.28704000      -0.20646900      -0.00292600      -0.07254600
C        4.26084000       4.91997000      10.29640000      -0.05144400       0.01482600      -0.03168300
C        7.81145000       1.23001000      10.24760000      -0.34119700       0.00010000      -0.13747900
C       -2.84055000       4.91997000      10.29620000       0.05554900       0.01957500      -0.03007800
C        3.55065000       1.23001000      10.28664000       0.19928900      -0.00013000      -0.05745000
C        1.42025000       4.91997000      10.29620000       0.05549300      -0.02049200      -0.02999000
C        1.42030000       0.00000000      10.24760000       0.17139400      -0.29593100      -0.13747500
C       -0.71010000       3.68996000      10.28664000      -0.09909300       0.17199200      -0.05746000
C        5.68109000       0.00000000      10.29620000      -0.01016000       0.05734000      -0.03008500
C        3.55069000       3.68996000      10.29620000      -0.04485900       0.03729000      -0.02998300
C        1.42034000       2.45995000      10.24737000       0.16996100       0.30273500      -0.13476500
C       -0.71006000       6.14991000      10.29620000      -0.04509900      -0.02971600      -0.03010000
C        5.68114000       2.45995000      10.29621000      -0.01041100      -0.04976400      -0.03008300
C        3.55074000       6.14991000      10.28663000      -0.11103600      -0.16268600      -0.06084600
Li       0.71013000       1.22998000      11.87951000       0.00025200       0.00005600       0.00068900
49
Lattice="8.52159977 0.0 0.0 -4.260799885 7.379921881 0.0 0.0 0.0 24.0" Properties=species:S:1:pos:R:3:forces:R:3 stress="-0.005078622353094319 5.998090269973811e-06 3.8010790576629046e-06 5.998090269973811e-06 -0.005076687485265295 -1.0048829692672046e-06 3.8010790576629046e-06 -1.0048829692672046e-06 0.0018929248876978744" free_energy=-447.73585571 energy=-447.73409693 pbc="T T T"
C        0.00000000       0.00000000      13.80494000      -0.13665100      -0.23702900       0.10972500
C       -2.13040000       3.68996000      13.70154000       0.02201400      -0.01804100       0.06010700
C        4.26080000       0.00000000      13.70154000      -0.02633100       0.00987200       0.06010500
C        2.13040000       3.68996000      13.73234000       0.04715100       0.08132100       0.07163300
C        0.00000000       2.46002000      13.80518000      -0.13762400       0.23985900       0.10752900
C       -2.13040000       6.14998000      13.73218000       0.04636400      -0.07872100       0.07156600
C        4.26080000       2.46002000      13.70141000      -0.02725500      -0.00736900       0.06058100
C        2.13040000       6.14998000      13.70141000       0.02122100       0.02057100       0.05974100
C        2.13044000       1.23001000      13.80518000       0.27683600       0.00057200       0.10753600
C        0.00004000       4.91997000      13.70141000       0.00754200      -0.02746100       0.06058300
C        6.39124000       1.23001000      13.73218000      -0.09105600       0.00061700       0.07156600
C        4.26084000       4.91997000      13.70142000       0.00750100       0.02849000       0.05974000
C        7.10130000       2.46002000      13.74966000      -0.13066300       0.04778500       0.00082500
C       -3.55069000       6.14998000      13.74953000       0.02497800      -0.14162400       0.00018100
C        2.84050000       2.46002000      13.74968000       0.11127100       0.08781500       0.00101600
C        0.71010000       6.14998000      13.68764000       0.00120700      -0.00100200       0.04599700
C        0.71015000       1.23001000      13.88210000      -0.00100700      -0.00200600       0.10970600
C       -1.42025000       4.91997000      13.70180000      -0.01675500       0.02472500       0.06229900
C        4.97095000       1.23001000      13.70180000       0.03004200      -0.00229400       0.06229800