49
Lattice="8.52159977 0.0 0.0 -4.260799885 7.379921881 0.0 0.0 0.0 24.0" Properties=species:S:1:pos:R:3:forces:R:3 stress="-0.004879043857285077 5.773395941442014e-06 -6.241509125883259e-09 5.773395941442014e-06 -0.004878213736571334 5.617358213294932e-08 -6.241509125883259e-09 5.617358213294932e-08 0.004346000253407267" free_energy=-447.75970491 energy=-447.75801504 pbc="T T T"
C        0.00000000       0.00000000      13.90000000      -0.13988100      -0.24227100       0.00004700
C       -2.13040000       3.68996000      13.90000000       0.00105200      -0.00311700      -0.01890300
C        4.26080000       0.00000000      13.90000000      -0.00323700      -0.00064200      -0.01890300
C        2.13040000       3.68996000      13.90000000       0.05144800       0.08912300      -0.00250500
C        0.00000000       2.46002000      13.90000000      -0.14072600       0.24486300       0.00120300
C       -2.13040000       6.14998000      13.90000000       0.05063300      -0.08649400      -0.00134800
C        4.26080000       2.46002000      13.90000000      -0.00405400       0.00325500      -0.01774100
C        2.13040000       6.14998000      13.90000000       0.00025500       0.00574600      -0.01774000
C        2.13044000       1.23001000      13.90000000       0.28241200       0.00056200       0.00120400
C        0.00004000       4.91997000      13.90000000       0.00483400      -0.00187800      -0.01774000
C        6.39124000       1.23001000      13.90000000      -0.10023300       0.00060900      -0.00134800
C        4.26084000       4.91997000      13.90000000       0.00483600       0.00310000      -0.01773900
C        7.10130000       2.46002000      13.90000000      -0.14919200       0.04814000      -0.02025400
C       -3.55069000       6.14998000      13.90000000       0.03363700      -0.15610200      -0.02024500
C        2.84050000       2.46002000      13.90000000       0.11908200       0.10436900      -0.02025100
C        0.71010000       6.14998000      13.90000000       0.00116600      -0.00119100      -0.00960900
C        0.71015000       1.23001000      13.90000000      -0.00141600      -0.00239700       1.36015700
C       -1.42025000       4.91997000      13.90000000      -0.01711300       0.02491400      -0.01745500
C        4.97095000       1.23001000      13.90000000       0.03008700      -0.00233900      -0.01745500
C        2.84055000       4.91997000      13.90000000      -0.01710800      -0.02957900      -0.01745300
C        2.84059000       0.00000000      13.90000000       0.11624000      -0.10510700      -0.02025400
C        0.71019000       3.68996000      13.90000000       0.03079700       0.15533700      -0.02025100
C        7.10139000       0.00000000      13.90000000      -0.15205500      -0.04889500      -0.02024600
C        4.97099000       3.68996000      13.90000000      -0.00165900       0.00044300      -0.00960900
C        0.00000000       0.00000000      10.10000000      -0.10237600      -0.17899900      -0.01618400
C       -2.13040000       3.68996000      10.10000000       0.02859600       0.02825300       0.01110700
C        4.26080000       0.00000000      10.10000000       0.01167000       0.03800000       0.01110900
C        2.13040000       3.68996000      10.10000000       0.09508000       0.16296000       0.04608300
C        0.00000000       2.46002000      10.10000000      -0.10143600       0.17463800      -0.01734800
C       -2.13040000       6.14998000      10.10000000       0.09591800      -0.16730000       0.04492600
C        4.26080000       2.46002000      10.10000000       0.01253400      -0.04238900       0.00994700
C        2.13040000       6.14998000      10.10000000       0.02945500      -0.03259600       0.00994800
C        2.13044000       1.23001000      10.10000000       0.20430600      -0.00290200      -0.01737000
C        0.00004000       4.91997000      10.10000000      -0.04061600      -0.01264300       0.00994700
C        6.39124000       1.23001000      10.10000000      -0.19049600      -0.00290000       0.04492100
C        4.26084000       4.91997000      10.10000000      -0.04062500       0.00689700       0.00994700
C        7.81145000       1.23001000      10.10000000      -0.19931900      -0.00056100      -0.01170000
C       -2.84055000       4.91997000      10.10000000       0.04374300       0.00936500       0.00875200
C        3.55065000       1.23001000      10.10000000       0.18811800      -0.00052400       0.04381000
C        1.42025000       4.91997000      10.10000000       0.04371900      -0.01039400       0.00875400
C        1.42030000       0.00000000      10.10000000       0.09951400      -0.17319600      -0.01169700
C       -0.71010000       3.68996000      10.10000000      -0.09421000       0.16232600       0.04381600
C        5.68109000       0.00000000      10.10000000      -0.01346200       0.04221300       0.00875100
C        3.55069000       3.68996000      10.10000000      -0.03058200       0.03234300       0.00874900
C        1.42034000       2.45995000      10.10000000       0.09937700       0.18090500      -0.01171700
C       -0.71006000       6.14991000      10.10000000      -0.03069700      -0.02466900       0.00875000
C        5.68114000       2.45995000      10.10000000      -0.01359800      -0.03455600       0.00874700
C        3.55074000       6.14991000      10.10000000      -0.09435100      -0.15466500       0.04381500
Li       0.71015000       1.23001000      12.00000000      -0.00006400      -0.00005100      -1.35142600
49
Lattice="8.52159977 0.0 0.0 -4.260799885 7.379921881 0.0 0.0 0.0 24.0" Properties=species:S:1:pos:R:3:forces:R:3 stress="-0.004932390035784 5.9231921604632125e-06 7.48981095105991e-08 5.9231921604632125e-06 -0.004931634813179768 1.8724527377649773e-07 7.48981095105991e-08 1.8724527377649773e-07 0.005043389034078707" free_energy=-447.8553649 energy=-447.85367481 pbc="T T T"
C        0.00000000       0.00000000      13.90000000      -0.11650400      -0.20178000       0.33242700
C       -2.13040000       3.68996000      13.89909000       0.00033600      -0.00284300      -0.04974700
C        4.26080000       0.00000000      13.89909000      -0.00264300      -0.00112300      -0.04974700
C        2.13040000       3.68996000      13.89988000       0.04743100       0.08216500       0.01274000
C        0.00000000       2.46002000      13.90006000      -0.11735700       0.20436800       0.33292000
C       -2.13040000       6.14998000      13.89993000       0.04662700      -0.07958600       0.01358200
C        4.26080000       2.46002000      13.89914000      -0.00345500       0.00370900      -0.04899200
C        2.13040000       6.14998000      13.89914000      -0.00046000       0.00545100      -0.04899300
C        2.13044000       1.23001000      13.90006000       0.23565700       0.00055300       0.33291800
C        0.00004000       4.91997000      13.89914000       0.00492700      -0.00113200      -0.04899200
C        6.39124000       1.23001000      13.89993000      -0.09224900       0.00059300       0.01358200
C        4.26084000       4.91997000      13.89914000       0.00493800       0.00233400      -0.04899300
C        7.10130000       2.46002000      13.89902000      -0.15211400       0.04437300      -0.03724100
C       -3.55069000       6.14998000      13.89902000       0.03833200      -0.15682300      -0.03723600
C        2.84050000       2.46002000      13.89902000       0.11732600       0.10873000      -0.03725200
C        0.71010000       6.14998000      13.89954000       0.00116100      -0.00121700      -0.02070200
C        0.71015000       1.23001000      13.96562000      -0.00102200      -0.00171600      -0.19134500
C       -1.42025000       4.91997000      13.89916000      -0.01405800       0.01963000      -0.00777500
C        4.97095000       1.23001000      13.89916000       0.02398400      -0.00233500      -0.00777500
C        2.84055000       4.91997000      13.89916000      -0.01404700      -0.02427700      -0.00768000
C        2.84059000       0.00000000      13.89902000       0.11443900      -0.10952000      -0.03724100
C        0.71019000       3.68996000      13.89902000       0.03545200       0.15599800      -0.03725200
C        7.10139000       0.00000000      13.89902000      -0.15502600      -0.04519000      -0.03723700
C        4.97099000       3.68996000      13.89954000      -0.00167800       0.00042500      -0.02070200
C        0.00000000       0.00000000      10.09922000      -0.11422500      -0.19954400      -0.03267700
C       -2.13040000       3.68996000      10.10054000       0.03060500       0.03079000       0.01881200
C        4.26080000       0.00000000      10.10054000       0.01288500       0.04099500       0.01881100
C        2.13040000       3.68996000      10.10222000       0.09993300       0.17134200       0.02687600
C        0.00000000       2.46002000      10.09916000      -0.11327600       0.19511600      -0.03332400
C       -2.13040000       6.14998000      10.10217000       0.10077300      -0.17573000       0.02608500
C        4.26080000       2.46002000      10.10048000       0.01374800      -0.04544500       0.01806800
C        2.13040000       6.14998000      10.10048000       0.03148100      -0.03518600       0.01807000
C        2.13044000       1.23001000      10.09916000       0.22798700      -0.00293900      -0.03333400
C        0.00004000       4.91997000      10.10048000      -0.04384200      -0.01313800       0.01807200
C        6.39124000       1.23001000      10.10217000      -0.20019800      -0.00293100       0.02608400
C        4.26084000       4.91997000      10.10048000      -0.04385700       0.00733700       0.01806500
C        7.81145000       1.23001000      10.09944000      -0.22278000      -0.00056700      -0.03311700
C       -2.84055000       4.91997000      10.10042000       0.04704800       0.00999000       0.01872900
C        3.55065000       1.23001000      10.10211000       0.19732100      -0.00047200       0.02494000
C        1.42025000       4.91997000      10.10042000       0.04702400      -0.01100600       0.01872000
C        1.42030000       0.00000000      10.09944000       0.11121800      -0.19349500      -0.03311800
C       -0.71010000       3.68996000      10.10211000      -0.09879000       0.17034100       0.02494800
C        5.68109000       0.00000000      10.10042000      -0.01459300       0.04540500       0.01872900
C        3.55069000       3.68996000      10.10042000      -0.03278700       0.03491400       0.01871700
C        1.42034000       2.45995000      10.09943000       0.11108800       0.20122000      -0.03307200
C       -0.71006000       6.14991000      10.10042000      -0.03291600      -0.02724500       0.01872000
C        5.68114000       2.45995000      10.10042000      -0.01475000      -0.03775200       0.01871500
C        3.55074000       6.14991000      10.10211000      -0.09902900      -0.16273600       0.02495200
Li       0.71014000       1.23001000      11.93480000      -0.00006500      -0.00005500      -0.44073800
49
Lattice="8.52159977 0.0 0.0 -4.260799885 7.379921881 0.0 0.0 0.0 24.0" Properties=species:S:1:pos:R:3:forces:R:3 stress="-0.004995298206263777 5.929433669589095e-06 7.48981095105991e-08 5.929433669589095e-06 -0.004994617881769056 1.7476225552473123e-07 7.48981095105991e-08 1.7476225552473123e-07 0.0050348818571401294" free_energy=-447.87311454 energy=-447.87142432 pbc="T T T"
C        0.00000000       0.00000000      13.91495000      -0.12670000      -0.21943900       0.05168900
C       -2.13040000       3.68996000      13.89685000       0.00027900       0.00108700      -0.03997800
C        4.26080000       0.00000000      13.89685000       0.00078800       0.00079300      -0.03997800
C        2.13040000       3.68996000      13.90045000       0.04594000       0.07958400      -0.02445200
C        0.00000000       2.46002000      13.91503000      -0.12756800       0.22207500       0.05117800
C       -2.13040000       6.14998000      13.90055000       0.04513200      -0.07699100      -0.02407500
C        4.26080000       2.46002000      13.89694000      -0.00002600       0.00180700      -0.03952900
C        2.13040000       6.14998000      13.89694000      -0.00051600       0.00153600      -0.03949000
C        2.13044000       1.23001000      13.91503000       0.25609600       0.00056400       0.05117700
C        0.00004000       4.91997000      13.89694000       0.00156500       0.00088700      -0.03952900
C        6.39124000       1.23001000      13.90055000      -0.08925500       0.00059700      -0.02407600
C        4.26084000       4.91997000      13.89694000       0.00157500       0.00032800      -0.03949000
C        7.10130000       2.46002000      13.89735000      -0.14118300       0.04199900       0.06675600
C       -3.55069000       6.14998000      13.89735000       0.03494900      -0.14626100       0.06677600
C        2.84050000       2.46002000      13.89735000       0.10987400       0.10041600       0.06672500
C        0.71010000       6.14998000      13.89861000       0.00117400      -0.00123100      -0.06401800
C        0.71015000       1.23001000      13.95701000      -0.00114700      -0.00193400       0.16305500
C       -1.42025000       4.91997000      13.89881000      -0.01323800       0.01822800      -0.03162900
C        4.97095000       1.23001000      13.89881000       0.02236100      -0.00232600      -0.03162900
C        2.84055000       4.91997000      13.89881000      -0.01322200      -0.02284800      -0.03163600
C        2.84059000       0.00000000      13.89735000       0.10691800      -0.10124100       0.06675500
C        0.71019000       3.68996000      13.89735000       0.03197900       0.14538800       0.06672500
C        7.10139000       0.00000000      13.89735000      -0.14418700      -0.04284000       0.06677600
C        4.97099000       3.68996000      13.89861000      -0.00169700       0.00042900      -0.06401800
C        0.00000000       0.00000000      10.09775000      -0.11806600      -0.20620400      -0.03843900
C       -2.13040000       3.68996000      10.10138000       0.03093100       0.03177300       0.02412900
C        4.26080000       0.00000000      10.10138000       0.01357900       0.04176500       0.02412800
C        2.13040000       3.68996000      10.10343000       0.10129500       0.17369400       0.01592200
C        0.00000000       2.46002000      10.09766000      -0.11711300       0.20176900      -0.03882800
C       -2.13040000       6.14998000      10.10334000       0.10213800      -0.17808200       0.01548000
C        4.26080000       2.46002000      10.10129000       0.01444200      -0.04621500       0.02374500
C        2.13040000       6.14998000      10.10129000       0.03181400      -0.03616700       0.02375500
C        2.13044000       1.23001000      10.09766000       0.23567400      -0.00294200      -0.03883300
C        0.00004000       4.91997000      10.10129000      -0.04484800      -0.01292800       0.02375000
C        6.39124000       1.23001000      10.10334000      -0.20291000      -0.00293100       0.01547900
C        4.26084000       4.91997000      10.10129000      -0.04486500       0.00712900       0.02375100
C        7.81145000       1.23001000      10.09795000      -0.23034200      -0.00058300      -0.03726900
C       -2.84055000       4.91997000      10.10126000       0.04804700       0.00995800       0.02378500
C        3.55065000       1.23001000      10.10323000       0.19993000      -0.00043600       0.01512100
C        1.42025000       4.91997000      10.10126000       0.04802200      -0.01092100       0.02379600
C        1.42030000       0.00000000      10.09795000       0.11498000      -0.20004600      -0.03727100
C       -0.71010000       3.68996000      10.10324000      -0.10007000       0.17262500       0.01512800
C        5.68109000       0.00000000      10.10126000      -0.01512700       0.04625900       0.02378700
C        3.55069000       3.68996000      10.10126000      -0.03321900       0.03582600       0.02379300
C        1.42034000       2.45995000      10.09795000       0.11490100       0.20783200      -0.03719400
C       -0.71006000       6.14991000      10.10126000      -0.03337800      -0.02815400       0.02377800
C        5.68114000       2.45995000      10.10126000      -0.01531600      -0.03860300       0.02377400
C        3.55074000       6.14991000      10.10324000      -0.10036300      -0.16503800       0.01507100
Li       0.71014000       1.23001000      11.91499000      -0.00002500       0.00001200      -0.33442400
49
Lattice="8.52159977 0.0 0.0 -4.260799885 7.379921881 0.0 0.0 0.0 24.0" Properties=species:S:1:pos:R:3:forces:R:3 stress="-0.005003774175656727 5.985607251722044e-06 3.1207545629416294e-08 5.985607251722044e-06 -0.005003112575689383 9.986414601413215e-08 3.1207545629416294e-08 9.986414601413215e-08 0.005131188342952507" free_energy=-447.88425146 energy=-447.88256099 pbc="T T T"
C        0.00000000       0.00000000      13.92087000      -0.12509700      -0.21666200       0.07097600
C       -2.13040000       3.68996000      13.89402000       0.00060500       0.00204000      -0.02165500
C        4.26080000       0.00000000      13.89402000       0.00144900       0.00155200      -0.02165500
C        2.13040000       3.68996000      13.89909000       0.04437600       0.07687600       0.01918700
C        0.00000000       2.46002000      13.92092000      -0.12596400       0.21927000       0.07022500
C       -2.13040000       6.14998000      13.89921000       0.04358300      -0.07432500       0.01925500
C        4.26080000       2.46002000      13.89415000       0.00065000       0.00102800      -0.02167900
C        2.13040000       6.14998000      13.89415000      -0.00020100       0.00054700      -0.02165400
C        2.13044000       1.23001000      13.92092000       0.25286400       0.00055100       0.07022500
C        0.00004000       4.91997000      13.89415000       0.00055100       0.00108400      -0.02167900
C        6.39124000       1.23001000      13.89921000      -0.08617300       0.00058800       0.01925500
C        4.26084000       4.91997000      13.89415000       0.00056100       0.00010700      -0.02165400
C        7.10130000       2.46002000      13.90106000      -0.13726600       0.04116600       0.03222200
C       -3.55069000       6.14998000      13.90106000       0.03369200      -0.14227700       0.03256900
C        2.84050000       2.46002000      13.90106000       0.10703400       0.09751000       0.03221900
C        0.71010000       6.14998000      13.89457000       0.00122700      -0.00135000      -0.07417200
C        0.71015000       1.23001000      13.96523000      -0.00101700      -0.00171200       0.01324000
C       -1.42025000       4.91997000      13.89684000      -0.01231600       0.01669200      -0.05458200
C        4.97095000       1.23001000      13.89684000       0.02057000      -0.00229500      -0.05458200
C        2.84055000       4.91997000      13.89684000      -0.01229100      -0.02123700      -0.05448400
C        2.84059000       0.00000000      13.90106000       0.10423800      -0.09826500       0.03222200
C        0.71019000       3.68996000      13.90106000       0.03088400       0.14147500       0.03221900
C        7.10139000       0.00000000      13.90106000      -0.14010700      -0.04193700       0.03256900
C        4.97099000       3.68996000      13.89457000      -0.00182600       0.00041500      -0.07417200
C        0.00000000       0.00000000      10.09516000      -0.12316200      -0.21503600      -0.04608300
C       -2.13040000       3.68996000      10.10299000       0.03138200       0.03268900       0.02850200
C        4.26080000       0.00000000      10.10299000       0.01415400       0.04260900       0.02850100
C        2.13040000       3.68996000      10.10462000       0.10278600       0.17627000       0.00742300
C        0.00000000       2.46002000      10.09504000      -0.12220800       0.21056700      -0.04600000
C       -2.13040000       6.14998000      10.10449000       0.10363600      -0.18069900       0.00733100
C        4.26080000       2.46002000      10.10288000       0.01501800      -0.04709100       0.02850300
C        2.13040000       6.14998000      10.10288000       0.03226600      -0.03711600       0.02849100
C        2.13044000       1.23001000      10.09504000       0.24584800      -0.00296300      -0.04600100
C        0.00004000       4.91997000      10.10288000      -0.04588600      -0.01287200       0.02850900
C        6.39124000       1.23001000      10.10449000      -0.20591800      -0.00294800       0.00732900
C        4.26084000       4.91997000      10.10288000      -0.04590600       0.00704100       0.02848900
C        7.81145000       1.23001000      10.09542000      -0.24042000      -0.00063300      -0.04619700
C       -2.84055000       4.91997000      10.10286000       0.04899300       0.00992800       0.02820300
C        3.55065000       1.23001000      10.10436000       0.20293000      -0.00041700       0.00663100
C        1.42025000       4.91997000      10.10286000       0.04896700      -0.01083300       0.02823000
C        1.42030000       0.00000000      10.09542000       0.11996900      -0.20879000      -0.04619700
C       -0.71010000       3.68996000      10.10436000      -0.10156000       0.17523800       0.00663600
C        5.68109000       0.00000000      10.10286000      -0.01563200       0.04706900       0.02820500
C        3.55069000       3.68996000      10.10286000      -0.03362300       0.03669300       0.02822700
C        1.42034000       2.45995000      10.09543000       0.11997300       0.21662800      -0.04613700
C       -0.71006000       6.14991000      10.10286000      -0.03384200      -0.02907100       0.02818300
C        5.68114000       2.45995000      10.10285000      -0.01588500      -0.03946000       0.02818300
C        3.55074000       6.14991000      10.10435000      -0.10191300      -0.16770800       0.00662200
Li       0.71014000       1.23001000      11.89111000       0.00000600       0.00006400      -0.13999600
49
Lattice="8.52159977 0.0 0.0 -4.260799885 7.379921881 0.0 0.0 0.0 24.0" Properties=species:S:1:pos:R:3:forces:R:3 stress="-0.005032397736508027 5.998090269973811e-06 -6.241509125883259e-09 5.998090269973811e-06 -0.005031754861068062 4.369056388118281e-08 -6.241509125883259e-09 4.369056388118281e-08 0.00502438988029952" free_energy=-447.89079621 energy=-447.88910554 pbc="T T T"
C        0.00000000       0.00000000      13.92748000      -0.12708400      -0.22010200       0.01952900
C       -2.13040000       3.68996000      13.89186000       0.00108700       0.00245700      -0.03007100
C        4.26080000       0.00000000      13.89186000       0.00157000       0.00217800      -0.03007100
C        2.13040000       3.68996000      13.90014000       0.04348000       0.07532500       0.00668900
C        0.00000000       2.46002000      13.92747000      -0.12793700       0.22266400       0.01860100
C       -2.13040000       6.14998000      13.90028000       0.04270100      -0.07281500       0.00666700
C        4.26080000       2.46002000      13.89199000       0.00078900       0.00038900      -0.03008900
C        2.13040000       6.14998000      13.89199000       0.00027300       0.00010000      -0.02987500
C        2.13044000       1.23001000      13.92747000       0.25678800       0.00054100       0.01860100
C        0.00004000       4.91997000      13.89199000      -0.00007200       0.00088600      -0.03008800
C        6.39124000       1.23001000      13.90028000      -0.08442500       0.00058000       0.00666700
C        4.26084000       4.91997000      13.89199000      -0.00006400       0.00029400      -0.02987500
C        7.10130000       2.46002000      13.90402000      -0.13369400       0.04118500       0.02987500
C       -3.55069000       6.14998000      13.90405000       0.03186900      -0.13906400       0.03028000
C        2.84050000       2.46002000      13.90402000       0.10515000       0.09445300       0.02981300
C        0.71010000       6.14998000      13.88855000       0.00132000      -0.00153100      -0.03037600
C        0.71015000       1.23001000      13.96762000      -0.00096900      -0.00163200       0.02079500
C       -1.42025000       4.91997000      13.89263000      -0.01192800       0.01623600      -0.03154900
C        4.97095000       1.23001000      13.89263000       0.01998200      -0.00218800      -0.03155000
C        2.84055000       4.91997000      13.89264000      -0.01189200      -0.02054600      -0.03150500
C        2.84059000       0.00000000      13.90402000       0.10246900      -0.09516300       0.02987500
C        0.71019000       3.68996000      13.90402000       0.02918000       0.13831500       0.02981300
C        7.10139000       0.00000000      13.90405000      -0.13641200      -0.04190900       0.03028000
C        4.97099000       3.68996000      13.88855000      -0.00202800       0.00040300      -0.03037600
C        0.00000000       0.00000000      10.09137000      -0.12624500      -0.22038000      -0.04118900
C       -2.13040000       3.68996000      10.10534000       0.03158700       0.03323500       0.02891900
C        4.26080000       0.00000000      10.10534000       0.01452700       0.04305800       0.02891900
C        2.13040000       3.68996000      10.10542000       0.10332100       0.17719200       0.00061400
C        0.00000000       2.46002000      10.09126000      -0.12529600       0.21590400      -0.04086300
C       -2.13040000       6.14998000      10.10528000       0.10417900      -0.18165800       0.00067300
C        4.26080000       2.46002000      10.10521000       0.01539600      -0.04756000       0.02887600
C        2.13040000       6.14998000      10.10521000       0.03246600      -0.03768700       0.02887800
C        2.13044000       1.23001000      10.09126000       0.25201800      -0.00297300      -0.04086100
C        0.00004000       4.91997000      10.10521000      -0.04647700      -0.01278300       0.02888000
C        6.39124000       1.23001000      10.10528000      -0.20701600      -0.00296000       0.00067100
C        4.26084000       4.91997000      10.10521000      -0.04649600       0.00692500       0.02888000
C        7.81145000       1.23001000      10.09164000      -0.24650400      -0.00069500      -0.04100800
C       -2.84055000       4.91997000      10.10517000       0.04945700       0.00986300       0.02935900
C        3.55065000       1.23001000      10.10509000       0.20413400      -0.00040900       0.00106000
C        1.42025000       4.91997000      10.10517000       0.04942900      -0.01066000       0.02941800
C        1.42030000       0.00000000      10.09164000       0.12295400      -0.21408500      -0.04100500
C       -0.71010000       3.68996000      10.10509000      -0.10215900       0.17628800       0.00106300
C        5.68109000       0.00000000      10.10517000      -0.01592400       0.04744100       0.02935900
C        3.55069000       3.68996000      10.10517000      -0.03370700       0.03718300       0.02941600
C        1.42034000       2.45995000      10.09165000       0.12306400       0.22197700      -0.04090400
C       -0.71006000       6.14991000      10.10517000      -0.03403400      -0.02963300       0.02939300
C        5.68114000       2.45995000      10.10517000      -0.01628600      -0.03990200       0.02939600
C        3.55074000       6.14991000      10.10508000      -0.10254700      -0.16879900       0.00099600
Li       0.71014000       1.23001000      11.87579000       0.00000600       0.00006100      -0.05100000
49
Lattice="8.52159977 0.0 0.0 -4.260799885 7.379921881 0.0 0.0 0.0 24.0" Properties=species:S:1:pos:R:3:forces:R:3 stress="-0.005149082749616415 6.0043317790996945e-06 -2.4966036503533037e-08 6.0043317790996945e-06 -0.005148477323231205 1.2483018251766519e-08 -2.4966036503533037e-08 1.2483018251766519e-08 0.004917366723317999" free_energy=-447.89494676 energy=-447.89325591 pbc="T T T"
C        0.00000000       0.00000000      13.93250000      -0.12784800      -0.22142400       0.01597300
C       -2.13040000       3.68996000      13.88813000       0.00238900       0.00139200      -0.01683200
C        4.26080000       0.00000000      13.88813000      -0.00000600       0.00277400      -0.01683200
C        2.13040000       3.68996000      13.90122000       0.04290300       0.07432700       0.01002100
C        0.00000000       2.46002000      13.93239000      -0.12865900       0.22389500       0.01533200
C       -2.13040000       6.14998000      13.90136000       0.04213400      -0.07186000       0.01028400
C        4.26080000       2.46002000      13.88826000      -0.00076000      -0.00022300      -0.01694900
C        2.13040000       6.14998000      13.88828000       0.00157200       0.00113500      -0.01659500
C        2.13044000       1.23001000      13.93238000       0.25821500       0.00053100       0.01533200
C        0.00004000       4.91997000      13.88826000       0.00017200      -0.00076100      -0.01694900
C        6.39124000       1.23001000      13.90136000      -0.08331600       0.00056700       0.01028400
C        4.26084000       4.91997000      13.88828000       0.00018200       0.00193800      -0.01659500
C        7.10130000       2.46002000      13.90797000      -0.13293600       0.04252000      -0.01203100
C       -3.55069000       6.14998000      13.90804000       0.03029800      -0.13892600      -0.01146000
C        2.84050000       2.46002000      13.90796000       0.10579500       0.09316900      -0.01207900
C        0.71010000       6.14998000      13.88319000       0.00140100      -0.00168800      -0.01715500
C        0.71015000       1.23001000      13.97030000      -0.00091200      -0.00153500       0.02856100
C       -1.42025000       4.91997000      13.88794000      -0.01190900       0.01644800      -0.00386700