49
Lattice="8.52159977 0.0 0.0 -4.260799885 7.379921881 0.0 0.0 0.0 24.0" Properties=species:S:1:pos:R:3:forces:R:3 stress="-0.006280843116394574 5.82332801444908e-06 -3.744905475529955e-08 5.82332801444908e-06 -0.006280019237189957 5.617358213294932e-08 -3.744905475529955e-08 5.617358213294932e-08 -0.0005925189443383496" free_energy=-447.45151892 energy=-447.44982829 pbc="T T T"
C        0.00000000       0.00000000      13.75000000      -0.14990600      -0.25965200       0.11431400
C       -2.13040000       3.68996000      13.75000000       0.00598300      -0.00740400       0.00663000
C        4.26080000       0.00000000      13.75000000      -0.00940400       0.00147900       0.00662900
C        2.13040000       3.68996000      13.75000000       0.05260900       0.09111800       0.02171800
C        0.00000000       2.46002000      13.75000000      -0.15074200       0.26222000       0.11545700
C       -2.13040000       6.14998000      13.75000000       0.05179400      -0.08851200       0.02280200
C        4.26080000       2.46002000      13.75000000      -0.01021700       0.00111300       0.00771300
C        2.13040000       6.14998000      13.75000000       0.00518600       0.01001500       0.00771400
C        2.13044000       1.23001000      13.75000000       0.30246600       0.00055800       0.11545800
C        0.00004000       4.91997000      13.75000000       0.00607100      -0.00829300       0.00771500
C        6.39124000       1.23001000      13.75000000      -0.10255000       0.00059700       0.02280300
C        4.26084000       4.91997000      13.75000000       0.00608000       0.00949700       0.00771700
C        7.10130000       2.46002000      13.75000000      -0.15244300       0.04205200       0.01290300
C       -3.55069000       6.14998000      13.75000000       0.04052400      -0.15739300       0.01291100
C        2.84050000       2.46002000      13.75000000       0.11675400       0.10946300       0.01291100
C        0.71010000       6.14998000      13.75000000       0.00159900      -0.00195000       0.01967200
C        0.71015000       1.23001000      13.75000000      -0.00092500      -0.00153600       2.76697100
C       -1.42025000       4.91997000      13.75000000      -0.01791300       0.02779600       0.01075200
C        4.97095000       1.23001000      13.75000000       0.03297700      -0.00158700       0.01075300
C        2.84055000       4.91997000      13.75000000      -0.01790800      -0.03095800       0.01075500
C        2.84059000       0.00000000      13.75000000       0.11258500      -0.11096000       0.01290300
C        0.71019000       3.68996000      13.75000000       0.03636300       0.15587300       0.01291000
C        7.10139000       0.00000000      13.75000000      -0.15662600      -0.04357200       0.01291000
C        4.97099000       3.68996000      13.75000000      -0.00253800       0.00044400       0.01967100
C        0.00000000       0.00000000      10.25000000      -0.12950400      -0.22599700      -0.14192900
C       -2.13040000       3.68996000      10.25000000       0.03597500       0.02968700      -0.01356500
C        4.26080000       0.00000000      10.25000000       0.00923800       0.04510000      -0.01356300
C        2.13040000       3.68996000      10.25000000       0.09969400       0.17094100       0.02529400
C        0.00000000       2.46002000      10.25000000      -0.12857500       0.22161300      -0.14308400
C       -2.13040000       6.14998000      10.25000000       0.10054400      -0.17531700       0.02420600
C        4.26080000       2.46002000      10.25000000       0.01010100      -0.04952600      -0.01464800
C        2.13040000       6.14998000      10.25000000       0.03683700      -0.03406500      -0.01464800
C        2.13044000       1.23001000      10.25000000       0.25856800      -0.00292100      -0.14310400
C        0.00004000       4.91997000      10.25000000      -0.04556200      -0.01832800      -0.01464800
C        6.39124000       1.23001000      10.25000000      -0.19973300      -0.00291300       0.02420200
C        4.26084000       4.91997000      10.25000000      -0.04557500       0.01254500      -0.01464900
C        7.81145000       1.23001000      10.25000000      -0.25046400       0.00021700      -0.13113700
C       -2.84055000       4.91997000      10.25000000       0.04901200       0.01673900      -0.01960200
C        3.55065000       1.23001000      10.25000000       0.19321400       0.00024100       0.01979200
C        1.42025000       4.91997000      10.25000000       0.04898700      -0.01625500      -0.01960000
C        1.42030000       0.00000000      10.25000000       0.12574600      -0.21708800      -0.13113000
C       -0.71010000       3.68996000      10.25000000      -0.09610800       0.16713000       0.01979600
C        5.68109000       0.00000000      10.25000000      -0.00972200       0.05047100      -0.01960400
C        3.55069000       3.68996000      10.25000000      -0.03830700       0.03398200      -0.01960600
C        1.42034000       2.45995000      10.25000000       0.12427500       0.22404700      -0.13117700
C       -0.71006000       6.14991000      10.25000000      -0.03973000      -0.02703900      -0.01960400
C        5.68114000       2.45995000      10.25000000      -0.01116900      -0.04354600      -0.01960700
C        3.55074000       6.14991000      10.25000000      -0.09756900      -0.16019700       0.01979500
Li       0.71015000       1.23001000      12.00000000       0.00000900       0.00007500      -2.48086900
49
Lattice="8.52159977 0.0 0.0 -4.260799885 7.379921881 0.0 0.0 0.0 24.0" Properties=species:S:1:pos:R:3:forces:R:3 stress="-0.006268859418872879 5.960641215218511e-06 -1.2483018251766519e-08 5.960641215218511e-06 -0.00626812916230515 5.617358213294932e-08 -1.2483018251766519e-08 5.617358213294932e-08 0.0014363460121212626" free_energy=-447.69431846 energy=-447.69258028 pbc="T T T"
C        0.00000000       0.00000000      13.75551000      -0.08563500      -0.14832400       0.72781600
C       -2.13040000       3.68996000      13.75032000       0.00249000      -0.00797300      -0.04903200
C        4.26080000       0.00000000      13.75032000      -0.00815500      -0.00182800      -0.04903100
C        2.13040000       3.68996000      13.75105000       0.04763100       0.08250100       0.07152400
C        0.00000000       2.46002000      13.75557000      -0.08652400       0.15100900       0.72829500
C       -2.13040000       6.14998000      13.75110000       0.04687700      -0.07996400       0.07226400
C        4.26080000       2.46002000      13.75037000      -0.00896200       0.00444300      -0.04847700
C        2.13040000       6.14998000      13.75037000       0.00169000       0.01061200      -0.04847300
C        2.13044000       1.23001000      13.75557000       0.17403900       0.00057200       0.72829200
C        0.00004000       4.91997000      13.75037000       0.00832500      -0.00553900      -0.04847700
C        6.39124000       1.23001000      13.75110000      -0.09269400       0.00061600       0.07226400
C        4.26084000       4.91997000      13.75037000       0.00834200       0.00677200      -0.04847300
C        7.10130000       2.46002000      13.75062000      -0.15290400       0.04215000      -0.00821400
C       -3.55069000       6.14998000      13.75062000       0.04067800      -0.15782700      -0.00826000
C        2.84050000       2.46002000      13.75062000       0.11705800       0.10984000      -0.00823400
C        0.71010000       6.14998000      13.75095000       0.00159100      -0.00192400      -0.00218200
C        0.71015000       1.23001000      13.88349000      -0.00111900      -0.00187600      -0.85832100
C       -1.42025000       4.91997000      13.75052000      -0.01482400       0.02243900       0.02567000
C        4.97095000       1.23001000      13.75052000       0.02679600      -0.00159100       0.02567000
C        2.84055000       4.91997000      13.75052000      -0.01480600      -0.02558800       0.02583700
C        2.84059000       0.00000000      13.75062000       0.11290300      -0.11131200      -0.00821500
C        0.71019000       3.68996000      13.75062000       0.03654200       0.15632500      -0.00823400
C        7.10139000       0.00000000      13.75062000      -0.15707400      -0.04365600      -0.00826200
C        4.97099000       3.68996000      13.75095000      -0.00251100       0.00044800      -0.00218300
C        0.00000000       0.00000000      10.24315000      -0.16647800      -0.29005000      -0.20243200
C       -2.13040000       3.68996000      10.24935000       0.03947200       0.03340200      -0.00640000
C        4.26080000       0.00000000      10.24935000       0.01072400       0.04997300      -0.00639900
C        2.13040000       3.68996000      10.25122000       0.10776400       0.18489900      -0.01661800
C        0.00000000       2.46002000      10.24310000      -0.16551100       0.28561800      -0.20321800
C       -2.13040000       6.14998000      10.25117000       0.10861200      -0.18926900      -0.01705000
C        4.26080000       2.46002000      10.24929000       0.01159200      -0.05440700      -0.00697300
C        2.13040000       6.14998000      10.24929000       0.04034500      -0.03778000      -0.00697400
C        2.13044000       1.23001000      10.24310000       0.33248100      -0.00292300      -0.20322000
C        0.00004000       4.91997000      10.24929000      -0.05050900      -0.01949400      -0.00697100
C        6.39124000       1.23001000      10.25117000      -0.21582800      -0.00292000      -0.01705200
C        4.26084000       4.91997000      10.24929000      -0.05052500       0.01370600      -0.00697900
C        7.81145000       1.23001000      10.24367000      -0.32365400       0.00009800      -0.20427900
C       -2.84055000       4.91997000      10.24905000       0.05417900       0.01829500      -0.00486900
C        3.55065000       1.23001000      10.25095000       0.20794700       0.00028100      -0.01885300
C        1.42025000       4.91997000      10.24905000       0.05415500      -0.01781300      -0.00488100
C        1.42030000       0.00000000      10.24367000       0.16222400      -0.28051100      -0.20427600
C       -0.71010000       3.68996000      10.25095000      -0.10345700       0.17992300      -0.01884800
C        5.68109000       0.00000000      10.24905000      -0.01097500       0.05573800      -0.00486900
C        3.55069000       3.68996000      10.24905000      -0.04225900       0.03769400      -0.00488300
C        1.42034000       2.45995000      10.24367000       0.16099000       0.28764400      -0.20425000
C       -0.71006000       6.14991000      10.24905000      -0.04364400      -0.03068300      -0.00488500
C        5.68114000       2.45995000      10.24905000      -0.01239600      -0.04874600      -0.00488900
C        3.55074000       6.14991000      10.25095000      -0.10496200      -0.17297500      -0.01884900
Li       0.71015000       1.23002000      11.88032000      -0.00004400      -0.00002600       0.12535300
49
Lattice="8.52159977 0.0 0.0 -4.260799885 7.379921881 0.0 0.0 0.0 24.0" Properties=species:S:1:pos:R:3:forces:R:3 stress="-0.006256981827006322 3.8010790576629046e-06 -1.404339553323733e-06 3.8010790576629046e-06 -0.006258766898616324 9.487093871342552e-07 -1.404339553323733e-06 9.487093871342552e-07 0.0012377786407904124" free_energy=-447.74811145 energy=-447.74639199 pbc="T T T"
C        0.00000000       0.00000000      13.78250000      -0.12594000      -0.21842200       0.12551700
C       -2.13040000       3.68996000      13.74850000       0.00438600      -0.00187100      -0.02040500
C        4.26080000       0.00000000      13.74850000      -0.00356900       0.00272000      -0.02040400
C        2.13040000       3.68996000      13.75370000       0.04637300       0.08003300       0.00385800
C        0.00000000       2.46002000      13.78257000      -0.12681700       0.22094200       0.12567700
C       -2.13040000       6.14998000      13.75378000       0.04559300      -0.07761300       0.00426800
C        4.26080000       2.46002000      13.74857000      -0.00437900      -0.00025900      -0.02016500
C        2.13040000       6.14998000      13.74858000       0.00358700       0.00435600      -0.02010600
C        2.13044000       1.23001000      13.78257000       0.25499800       0.00049900       0.12567500
C        0.00004000       4.91997000      13.74857000       0.00221100      -0.00406400      -0.02016500
C        6.39124000       1.23001000      13.75378000      -0.08976600       0.00053500       0.00426800
C        4.26084000       4.91997000      13.74858000       0.00222500       0.00514200      -0.02010600
C        7.10130000       2.46002000      13.75032000      -0.13444100       0.03501300       0.16711100
C       -3.55069000       6.14998000      13.75032000       0.03777600      -0.13853700       0.16703000
C        2.84050000       2.46002000      13.75032000       0.10191100       0.09739300       0.16708400
C        0.71010000       6.14998000      13.75087000       0.00171300      -0.00200200      -0.06456600
C        0.71015000       1.23001000      13.85166000      -0.00079900      -0.00161300       0.21000800
C       -1.42025000       4.91997000      13.75147000      -0.01344500       0.02013800      -0.01759800
C        4.97095000       1.23001000      13.75147000       0.02436400      -0.00169300      -0.01759900
C        2.84055000       4.91997000      13.75148000      -0.01342100      -0.02347700      -0.01762300
C        2.84059000       0.00000000      13.75032000       0.09774200      -0.09903700       0.16711000
C        0.71019000       3.68996000      13.75032000       0.03358700       0.13683900       0.16708400
C        7.10139000       0.00000000      13.75032000      -0.13866700      -0.03666900       0.16702900
C        4.97099000       3.68996000      13.75087000      -0.00238800       0.00037000      -0.06456600
C        0.00000000       0.00000000      10.23565000      -0.16248700      -0.28342900      -0.15196600
C       -2.13040000       3.68996000      10.24911000       0.03872400       0.03365200      -0.00233800
C        4.26080000       0.00000000      10.24911000       0.01156600       0.04930500      -0.00233700
C        2.13040000       3.68996000      10.25060000       0.10732200       0.18384200      -0.04392200
C        0.00000000       2.46002000      10.23556000      -0.16151400       0.27882600      -0.15248700
C       -2.13040000       6.14998000      10.25054000       0.10817600      -0.18837800      -0.04422200
C        4.26080000       2.46002000      10.24903000       0.01243500      -0.05389500      -0.00270500
C        2.13040000       6.14998000      10.24903000       0.03959800      -0.03818700      -0.00270400
C        2.13044000       1.23001000      10.23556000       0.32485500      -0.00300600      -0.15248400
C        0.00004000       4.91997000      10.24903000      -0.05023500      -0.01865400      -0.00270300
C        6.39124000       1.23001000      10.25054000      -0.21458700      -0.00299800      -0.04422600
C        4.26084000       4.91997000      10.24903000      -0.05025100       0.01271100      -0.00270700
C        7.81145000       1.23001000      10.23610000      -0.31562300      -0.00017500      -0.15397500
C       -2.84055000       4.91997000      10.24887000       0.05407800       0.01760600      -0.00190800
C        3.55065000       1.23001000      10.25026000       0.20698700       0.00019200      -0.04476000
C        1.42025000       4.91997000      10.24887000       0.05405300      -0.01728100      -0.00195600
C        1.42030000       0.00000000      10.23610000       0.15821900      -0.27383400      -0.15397400
C       -0.71010000       3.68996000      10.25026000      -0.10280600       0.17890600      -0.04475700
C        5.68109000       0.00000000      10.24887000      -0.01127300       0.05516300      -0.00190600
C        3.55069000       3.68996000      10.24887000      -0.04149900       0.03772900      -0.00195500
C        1.42034000       2.45995000      10.23610000       0.15732100       0.28102300      -0.15399000
C       -0.71006000       6.14991000      10.24887000      -0.04593900      -0.02909700      -0.00074600
C        5.68114000       2.45995000      10.24887000      -0.01574600      -0.04655100      -0.00074800
C        3.55074000       6.14991000      10.25026000      -0.10430100      -0.17211500      -0.04473600
Li       0.71015000       1.23001000      11.88496000       0.00009200      -0.00008000      -0.08820400
49
Lattice="8.52159977 0.0 0.0 -4.260799885 7.379921881 0.0 0.0 0.0 24.0" Properties=species:S:1:pos:R:3:forces:R:3 stress="-0.006173358087737739 3.863494148921737e-06 -1.373132007694317e-06 3.863494148921737e-06 -0.006175086985765609 9.67433914511905e-07 -1.373132007694317e-06 9.67433914511905e-07 0.001366160242000705" free_energy=-447.76732256 energy=-447.76560271 pbc="T T T"
C        0.00000000       0.00000000      13.78990000      -0.12429500      -0.21556900       0.17714700
C       -2.13040000       3.68996000      13.74741000       0.00553200      -0.00245300       0.00791700
C        4.26080000       0.00000000      13.74741000      -0.00464600       0.00342300       0.00791700
C        2.13040000       3.68996000      13.75401000       0.04567400       0.07882500       0.07408800
C        0.00000000       2.46002000      13.78999000      -0.12518200       0.21807400       0.17687900
C       -2.13040000       6.14998000      13.75411000       0.04491400      -0.07646200       0.07429700
C        4.26080000       2.46002000      13.74750000      -0.00543900      -0.00098700       0.00792500
C        2.13040000       6.14998000      13.74750000       0.00471800       0.00489300       0.00793900
C        2.13044000       1.23001000      13.78999000       0.25169700       0.00048200       0.17688000
C        0.00004000       4.91997000      13.74750000       0.00210900      -0.00534600       0.00792500
C        6.39124000       1.23001000      13.75411000      -0.08843000       0.00052300       0.07429600
C        4.26084000       4.91997000      13.74750000       0.00212300       0.00639000       0.00793900
C        7.10130000       2.46002000      13.75858000      -0.13533900       0.03656300       0.08956800
C       -3.55069000       6.14998000      13.75857000       0.03686600      -0.13971300       0.08956800
C        2.84050000       2.46002000      13.75857000       0.10336100       0.09757500       0.08951400
C        0.71010000       6.14998000      13.74767000       0.00173700      -0.00207800      -0.06326000
C        0.71015000       1.23001000      13.86065000      -0.00075600      -0.00153100       0.12482300
C       -1.42025000       4.91997000      13.75064000      -0.01302000       0.01940000      -0.02957200
C        4.97095000       1.23001000      13.75064000       0.02351300      -0.00169300      -0.02957200
C        2.84055000       4.91997000      13.75065000      -0.01298700      -0.02272500      -0.02960600
C        2.84059000       0.00000000      13.75858000       0.09953400      -0.09904000       0.08956800
C        0.71019000       3.68996000      13.75857000       0.03301800       0.13818400       0.08951500
C        7.10139000       0.00000000      13.75857000      -0.13923000      -0.03804500       0.08956700
C        4.97099000       3.68996000      13.74767000      -0.00246600       0.00035300      -0.06326000
C        0.00000000       0.00000000      10.22779000      -0.16228700      -0.28308100      -0.13941800
C       -2.13040000       3.68996000      10.24898000       0.03844300       0.03371100      -0.00621000
C        4.26080000       0.00000000      10.24898000       0.01175800       0.04909100      -0.00620700
C        2.13040000       3.68996000      10.24840000       0.10667800       0.18272600      -0.04850800
C        0.00000000       2.46002000      10.22768000      -0.16131200       0.27845800      -0.13958300
C       -2.13040000       6.14998000      10.24832000       0.10754200      -0.18730400      -0.04834500
C        4.26080000       2.46002000      10.24889000       0.01263100      -0.05370900      -0.00645100
C        2.13040000       6.14998000      10.24889000       0.03931600      -0.03827600      -0.00676400
C        2.13044000       1.23001000      10.22768000       0.32444200      -0.00301600      -0.13959000
C        0.00004000       4.91997000      10.24889000      -0.05017200      -0.01839100      -0.00645000
C        6.39124000       1.23001000      10.24832000      -0.21333800      -0.00301100      -0.04835200
C        4.26084000       4.91997000      10.24889000      -0.05018800       0.01242100      -0.00676200
C        7.81145000       1.23001000      10.22814000      -0.31519200      -0.00041200      -0.14031800
C       -2.84055000       4.91997000      10.24877000       0.05380800       0.01720200      -0.00669700
C        3.55065000       1.23001000      10.24801000       0.20623700       0.00013200      -0.04901600
C        1.42025000       4.91997000      10.24877000       0.05377900      -0.01690500      -0.00670900
C        1.42030000       0.00000000      10.22814000       0.15780000      -0.27358500      -0.14032500
C       -0.71010000       3.68996000      10.24801000      -0.10248400       0.17822500      -0.04901600
C        5.68109000       0.00000000      10.24877000      -0.01148900       0.05472800      -0.00669600
C        3.55069000       3.68996000      10.24877000      -0.04103700       0.03768000      -0.00670800
C        1.42034000       2.45995000      10.22814000       0.15729600       0.28097600      -0.14031000
C       -0.71006000       6.14991000      10.24883000      -0.04547400      -0.02907500      -0.00616900
C        5.68114000       2.45995000      10.24883000      -0.01595700      -0.04613800      -0.00616400
C        3.55074000       6.14991000      10.24801000      -0.10391100      -0.17144100      -0.04891700
Li       0.71015000       1.23001000      11.88080000       0.00010300      -0.00004900      -0.03831700
49
Lattice="8.52159977 0.0 0.0 -4.260799885 7.379921881 0.0 0.0 0.0 24.0" Properties=species:S:1:pos:R:3:forces:R:3 stress="-0.0060291854684389615 6.041780833854994e-06 3.744905475529955e-08 6.041780833854994e-06 -0.006028411521307352 7.48981095105991e-08 3.744905475529955e-08 7.48981095105991e-08 0.0016825985131738604" free_energy=-447.79427181 energy=-447.79255937 pbc="T T T"
C        0.00000000       0.00000000      13.80824000      -0.12925700      -0.22387200       0.11571700
C       -2.13040000       3.68996000      13.74777000       0.00765200      -0.00347400      -0.00965900
C        4.26080000       0.00000000      13.74777000      -0.00684000       0.00489300      -0.00966100
C        2.13040000       3.68996000      13.76072000       0.04521900       0.07832700       0.05764800
C        0.00000000       2.46002000      13.80830000      -0.13014500       0.22649100       0.11419300
C       -2.13040000       6.14998000      13.76085000       0.04448600      -0.07589500       0.05779100
C        4.26080000       2.46002000      13.74786000      -0.00760500      -0.00234300      -0.00970000
C        2.13040000       6.14998000      13.74787000       0.00681500       0.00599800      -0.00969000
C        2.13044000       1.23001000      13.80830000       0.26121700       0.00053900       0.11419600
C        0.00004000       4.91997000      13.74786000       0.00176600      -0.00775600      -0.00969900
C        6.39124000       1.23001000      13.76085000      -0.08797400       0.00058100       0.05779100
C        4.26084000       4.91997000      13.74787000       0.00178000       0.00890300      -0.00969000
C        7.10130000       2.46002000      13.76887000      -0.13103200       0.03836000       0.05428200
C       -3.55069000       6.14998000      13.76887000       0.03300800      -0.13612200       0.05443000
C        2.84050000       2.46002000      13.76887000       0.10204100       0.09319100       0.05417500
C        0.71010000       6.14998000      13.74114000       0.00163700      -0.00208500       0.02289300
C        0.71015000       1.23001000      13.87371000      -0.00099100      -0.00163600       0.13833000
C       -1.42025000       4.91997000      13.74780000      -0.01325400       0.01973300       0.02442800
C        4.97095000       1.23001000      13.74780000       0.02366900      -0.00158500       0.02442800
C        2.84055000       4.91997000      13.74780000      -0.01319700      -0.02280300       0.02434300
C        2.84059000       0.00000000      13.76887000       0.09869000      -0.09427200       0.05428400
C        0.71019000       3.68996000      13.76887000       0.02962800       0.13499000       0.05417500
C        7.10139000       0.00000000      13.76887000      -0.13444100      -0.03944500       0.05443000
C        4.97099000       3.68996000      13.74114000      -0.00267200       0.00040600       0.02289300
C        0.00000000       0.00000000      10.21304000      -0.16162800      -0.28164600      -0.11048800
C       -2.13040000       3.68996000      10.24839000       0.03821000       0.03371600      -0.00363400
C        4.26080000       0.00000000      10.24839000       0.01163100       0.04903600      -0.00363300
C        2.13040000       3.68996000      10.24346000       0.10476300       0.17969500      -0.05793600
C        0.00000000       2.46002000      10.21291000      -0.16066400       0.27717000      -0.11008800
C       -2.13040000       6.14998000      10.24338000       0.10564700      -0.18418000      -0.05760300
C        4.26080000       2.46002000      10.24827000       0.01251100      -0.05354000      -0.00367300
C        2.13040000       6.14998000      10.24824000       0.03907200      -0.03817400      -0.00393100
C        2.13044000       1.23001000      10.21290000       0.32276500      -0.00295400      -0.11010700
C        0.00004000       4.91997000      10.24827000      -0.05021500      -0.01826600      -0.00367900
C        6.39124000       1.23001000      10.24338000      -0.20992900      -0.00294600      -0.05760300
C        4.26084000       4.91997000      10.24824000      -0.05022700       0.01240400      -0.00392200
C        7.81145000       1.23001000      10.21328000      -0.31384600      -0.00069700      -0.11037800
C       -2.84055000       4.91997000      10.24814000       0.05332800       0.01707700      -0.00329100
C        3.55065000       1.23001000      10.24300000       0.20336500       0.00006900      -0.05743900
C        1.42025000       4.91997000      10.24814000       0.05329100      -0.01668100      -0.00350400
C        1.42030000       0.00000000      10.21328000       0.15663200      -0.27242600      -0.11039400
C       -0.71010000       3.68996000      10.24301000      -0.10135100       0.17584800      -0.05743800
C        5.68109000       0.00000000      10.24814000      -0.01160900       0.05439600      -0.00329600
C        3.55069000       3.68996000      10.24814000      -0.04085100       0.03751600      -0.00350100
C        1.42034000       2.45995000      10.21328000       0.15672700       0.28027100      -0.11046300
C       -0.71006000       6.14991000      10.24826000      -0.04221800      -0.03054900      -0.00445800
C        5.68114000       2.45995000      10.24826000      -0.01299300      -0.04744300      -0.00444700
C        3.55074000       6.14991000      10.24302000      -0.10259200      -0.16887200      -0.05781000
Li       0.71016000       1.23000000      11.87630000      -0.00001600       0.00005100       0.01038800
49
Lattice="8.52159977 0.0 0.0 -4.260799885 7.379921881 0.0 0.0 0.0 24.0" Properties=species:S:1:pos:R:3:forces:R:3 stress="-0.00596519127537128 6.016814797351461e-06 -1.8724527377649774e-08 6.016814797351461e-06 -0.005964467260312678 -3.1207545629416294e-08 -1.8724527377649774e-08 -3.1207545629416294e-08 0.001918945739243682" free_energy=-447.8171457 energy=-447.81544135 pbc="T T T"
C        0.00000000       0.00000000      13.82811000      -0.13445700      -0.23287700       0.03704200
C       -2.13040000       3.68996000      13.74699000       0.01228400      -0.00687500       0.02846700
C        4.26080000       0.00000000      13.74699000      -0.01210100       0.00720300       0.02846700
C        2.13040000       3.68996000      13.76867000       0.04557700       0.07894600       0.02529300
C        0.00000000       2.46002000      13.82804000      -0.13524700       0.23531600       0.03606500
C       -2.13040000       6.14998000      13.76883000       0.04486400      -0.07659300       0.02524500
C        4.26080000       2.46002000      13.74709000      -0.01283700      -0.00467500       0.02825800
C        2.13040000       6.14998000      13.74709000       0.01144300       0.00935700       0.02830400
C        2.13044000       1.23001000      13.82804000       0.27141000       0.00053400       0.03606500
C        0.00004000       4.91997000      13.74709000       0.00236200      -0.01345300       0.02825900
C        6.39124000       1.23001000      13.76883000      -0.08876700       0.00055900       0.02524400
C        4.26084000       4.91997000      13.74709000       0.00237400       0.01459100       0.02830400
C        7.10130000       2.46002000      13.77953000      -0.12653700       0.04159400       0.03763600
C       -3.55069000       6.14998000      13.77953000       0.02792000      -0.13311900       0.03835300
C        2.84050000       2.46002000      13.77951000       0.10201300       0.08798200       0.03742500
C        0.71010000       6.14998000      13.73916000       0.00163500      -0.00209200       0.01694900
C        0.71015000       1.23001000      13.89177000      -0.00122700      -0.00204300       0.15220300
C       -1.42025000       4.91997000      13.74817000      -0.01400700       0.02099900       0.02543500