49
Lattice="8.52159977 0.0 0.0 -4.260799885 7.379921881 0.0 0.0 0.0 24.0" Properties=species:S:1:pos:R:3:forces:R:3 stress="-0.0064524971003746155 5.7796374505678964e-06 2.4966036503533037e-08 5.7796374505678964e-06 -0.006451666979660873 1.0610565514001541e-07 2.4966036503533037e-08 1.0610565514001541e-07 0.003915579542577233" free_energy=-447.8048307 energy=-447.80314001 pbc="T T T"
C        0.00000000       0.00000000      13.95000000      -0.13812700      -0.23922700      -0.01644400
C       -2.13040000       3.68996000      13.95000000      -0.00028500      -0.00177100      -0.01432500
C        4.26080000       0.00000000      13.95000000      -0.00140600      -0.00112300      -0.01432600
C        2.13040000       3.68996000      13.95000000       0.05088900       0.08815800       0.00232300
C        0.00000000       2.46002000      13.95000000      -0.13899500       0.24186900      -0.01783100
C       -2.13040000       6.14998000      13.95000000       0.05007100      -0.08552600       0.00099000
C        4.26080000       2.46002000      13.95000000      -0.00222800       0.00374200      -0.01565300
C        2.13040000       6.14998000      13.95000000      -0.00108400       0.00440700      -0.01565200
C        2.13044000       1.23001000      13.95000000       0.27895000       0.00056700      -0.01782900
C        0.00004000       4.91997000      13.95000000       0.00434000      -0.00005100      -0.01565200
C        6.39124000       1.23001000      13.95000000      -0.09911600       0.00060900       0.00099100
C        4.26084000       4.91997000      13.95000000       0.00434300       0.00127200      -0.01565100
C        7.10130000       2.46002000      13.95000000      -0.14776300       0.04878000      -0.01931600
C       -3.55069000       6.14998000      13.95000000       0.03237200      -0.15572800      -0.01931200
C        2.84050000       2.46002000      13.95000000       0.11939100       0.10254400      -0.01931800
C        0.71010000       6.14998000      13.95000000       0.00132400      -0.00146000      -0.00845100
C        0.71015000       1.23001000      13.95000000      -0.00126300      -0.00213700       1.04981300
C       -1.42025000       4.91997000      13.95000000      -0.01646200       0.02430500      -0.01592300
C        4.97095000       1.23001000      13.95000000       0.02924100      -0.00208100      -0.01592200
C        2.84055000       4.91997000      13.95000000      -0.01645900      -0.02846000      -0.01591900
C        2.84059000       0.00000000      13.95000000       0.11608700      -0.10355200      -0.01931600
C        0.71019000       3.68996000      13.95000000       0.02906700       0.15468800      -0.01931800
C        7.10139000       0.00000000      13.95000000      -0.15109300      -0.04980700      -0.01931200
C        4.97099000       3.68996000      13.95000000      -0.00196500       0.00044100      -0.00845200
C        0.00000000       0.00000000      10.05000000      -0.09649400      -0.16880200       0.00332300
C       -2.13040000       3.68996000      10.05000000       0.02618600       0.02786000       0.00643100
C        4.26080000       0.00000000      10.05000000       0.01252800       0.03572000       0.00643300
C        2.13040000       3.68996000      10.05000000       0.09335700       0.15998300       0.03994700
C        0.00000000       2.46002000      10.05000000      -0.09556600       0.16446900       0.00469800
C       -2.13040000       6.14998000      10.05000000       0.09420300      -0.16432300       0.04128100
C        4.26080000       2.46002000      10.05000000       0.01339700      -0.04010800       0.00775600
C        2.13040000       6.14998000      10.05000000       0.02704800      -0.03220300       0.00775700
C        2.13044000       1.23001000      10.05000000       0.19256200      -0.00290800       0.00467500
C        0.00004000       4.91997000      10.05000000      -0.03907600      -0.01075800       0.00775700
C        6.39124000       1.23001000      10.05000000      -0.18706500      -0.00290100       0.04127600
C        4.26084000       4.91997000      10.05000000      -0.03908500       0.00500800       0.00775600
C        7.81145000       1.23001000      10.05000000      -0.18836100      -0.00029800       0.00932600
C       -2.84055000       4.91997000      10.05000000       0.04184800       0.00758800       0.00722100
C        3.55065000       1.23001000      10.05000000       0.18544400      -0.00026500       0.04072800
C        1.42025000       4.91997000      10.05000000       0.04182600      -0.00810600       0.00722400
C        1.42030000       0.00000000      10.05000000       0.09427100      -0.16357800       0.00932800
C       -0.71010000       3.68996000      10.05000000      -0.09264300       0.16013500       0.04073400
C        5.68109000       0.00000000      10.05000000      -0.01404500       0.03968100       0.00722100
C        3.55069000       3.68996000      10.05000000      -0.02764600       0.03184100       0.00721900
C        1.42034000       2.45995000      10.05000000       0.09366300       0.17102900       0.00933500
C       -0.71006000       6.14991000      10.05000000      -0.02822000      -0.02442800       0.00722700
C        5.68114000       2.45995000      10.05000000      -0.01464100      -0.03228300       0.00722500
C        3.55074000       6.14991000      10.05000000      -0.09324400      -0.15273300       0.04073800
Li       0.71015000       1.23001000      12.00000000      -0.00007900      -0.00007700      -1.10280900
49
Lattice="8.52159977 0.0 0.0 -4.260799885 7.379921881 0.0 0.0 0.0 24.0" Properties=species:S:1:pos:R:3:forces:R:3 stress="-0.006476058797324825 5.891984614833796e-06 -6.865660038471585e-08 5.891984614833796e-06 -0.006475322299247972 -6.241509125883259e-08 -6.865660038471585e-08 -6.241509125883259e-08 0.004416454408420238" free_energy=-447.87008664 energy=-447.86839615 pbc="T T T"
C        0.00000000       0.00000000      13.94921000      -0.12147400      -0.21038400       0.24893800
C       -2.13040000       3.68996000      13.94931000      -0.00066200      -0.00136400      -0.03950900
C        4.26080000       0.00000000      13.94931000      -0.00086600      -0.00124800      -0.03950900
C        2.13040000       3.68996000      13.95011000       0.04747200       0.08224000       0.01037100
C        0.00000000       2.46002000      13.94914000      -0.12232000       0.21297400       0.24814000
C       -2.13040000       6.14998000      13.95005000       0.04667100      -0.07963600       0.00976100
C        4.26080000       2.46002000      13.94924000      -0.00168200       0.00385500      -0.04018000
C        2.13040000       6.14998000      13.94924000      -0.00146000       0.00397800      -0.04017900
C        2.13044000       1.23001000      13.94914000       0.24558800       0.00056000       0.24813800
C        0.00004000       4.91997000      13.94924000       0.00416300       0.00047900      -0.04018000
C        6.39124000       1.23001000      13.95005000      -0.09231500       0.00060900       0.00976000
C        4.26084000       4.91997000      13.94924000       0.00416000       0.00073200      -0.04017900
C        7.10130000       2.46002000      13.94907000      -0.15050100       0.04514000      -0.03480300
C       -3.55069000       6.14998000      13.94907000       0.03687300      -0.15621500      -0.03480800
C        2.84050000       2.46002000      13.94907000       0.11754400       0.10674200      -0.03482300
C        0.71010000       6.14998000      13.94959000       0.00131200      -0.00145900      -0.01571500
C        0.71015000       1.23001000      14.00065000      -0.00106600      -0.00179900      -0.08908500
C       -1.42025000       4.91997000      13.94923000      -0.01376400       0.01957000      -0.00620200
C        4.97095000       1.23001000      13.94923000       0.02378900      -0.00211200      -0.00620200
C        2.84055000       4.91997000      13.94923000      -0.01375800      -0.02378200      -0.00611100
C        2.84059000       0.00000000      13.94907000       0.11430300      -0.10774300      -0.03480300
C        0.71019000       3.68996000      13.94907000       0.03362800       0.15519000      -0.03482300
C        7.10139000       0.00000000      13.94907000      -0.15376500      -0.04615300      -0.03480900
C        4.97099000       3.68996000      13.94959000      -0.00195800       0.00043200      -0.01571500
C        0.00000000       0.00000000      10.05016000      -0.10461500      -0.18289200      -0.00422000
C       -2.13040000       3.68996000      10.05031000       0.02786800       0.03000500       0.01392700
C        4.26080000       0.00000000      10.05031000       0.01356500       0.03823800       0.01392600
C        2.13040000       3.68996000      10.05193000       0.09727100       0.16673900       0.02605400
C        0.00000000       2.46002000      10.05023000      -0.10368600       0.17853700      -0.00354100
C       -2.13040000       6.14998000      10.05199000       0.09812400      -0.17112700       0.02671400
C        4.26080000       2.46002000      10.05037000       0.01444100      -0.04266300       0.01460200
C        2.13040000       6.14998000      10.05037000       0.02872400      -0.03438700       0.01459700
C        2.13044000       1.23001000      10.05023000       0.20883100      -0.00292500      -0.00355200
C        0.00004000       4.91997000      10.05037000      -0.04178600      -0.01114800       0.01460600
C        6.39124000       1.23001000      10.05199000      -0.19489300      -0.00292500       0.02671300
C        4.26084000       4.91997000      10.05037000      -0.04179000       0.00534800       0.01459200
C        7.81145000       1.23001000      10.05045000      -0.20446200      -0.00031700      -0.00423300
C       -2.84055000       4.91997000      10.05035000       0.04463400       0.00806100       0.01445800
C        3.55065000       1.23001000      10.05196000       0.19296600      -0.00032100       0.02517000
C        1.42025000       4.91997000      10.05035000       0.04461100      -0.00858700       0.01445800
C        1.42030000       0.00000000      10.05045000       0.10228500      -0.17751400      -0.00423500
C       -0.71010000       3.68996000      10.05197000      -0.09647300       0.16663900       0.02517800
C        5.68109000       0.00000000      10.05035000      -0.01504800       0.04234500       0.01445800
C        3.55069000       3.68996000      10.05035000      -0.02947700       0.03402900       0.01445500
C        1.42034000       2.45995000      10.05045000       0.10171100       0.18499700      -0.00425200
C       -0.71006000       6.14991000      10.05035000      -0.03003700      -0.02659000       0.01446300
C        5.68114000       2.45995000      10.05035000      -0.01563300      -0.03492400       0.01445700
C        3.55074000       6.14991000      10.05197000      -0.09697000      -0.15915500       0.02516700
Li       0.71014000       1.23001000      11.94680000      -0.00007300      -0.00006900      -0.49143500
49
Lattice="8.52159977 0.0 0.0 -4.260799885 7.379921881 0.0 0.0 0.0 24.0" Properties=species:S:1:pos:R:3:forces:R:3 stress="-0.006456104692649375 5.9481581969667454e-06 -6.865660038471585e-08 5.9481581969667454e-06 -0.006455411885136404 -6.241509125883259e-08 -6.865660038471585e-08 -6.241509125883259e-08 0.004481565831621452" free_energy=-447.88575142 energy=-447.88406084 pbc="T T T"
C        0.00000000       0.00000000      13.96117000      -0.12729700      -0.22047100       0.03688900
C       -2.13040000       3.68996000      13.94741000      -0.00092000       0.00198900      -0.03242900
C        4.26080000       0.00000000      13.94741000       0.00216700       0.00020700      -0.03242900
C        2.13040000       3.68996000      13.95061000       0.04582800       0.07939400      -0.02194100
C        0.00000000       2.46002000      13.96106000      -0.12811200       0.22303000       0.03640000
C       -2.13040000       6.14998000      13.95052000       0.04502700      -0.07679900      -0.02231300
C        4.26080000       2.46002000      13.94731000       0.00135500       0.00238400      -0.03274200
C        2.13040000       6.14998000      13.94731000      -0.00171600       0.00060600      -0.03270100
C        2.13044000       1.23001000      13.96106000       0.25719200       0.00057200       0.03640000
C        0.00004000       4.91997000      13.94731000       0.00137200       0.00237400      -0.03274200
C        6.39124000       1.23001000      13.95052000      -0.08903800       0.00060400      -0.02231400
C        4.26084000       4.91997000      13.94731000       0.00136700      -0.00117500      -0.03270100
C        7.10130000       2.46002000      13.94740000      -0.14147600       0.04320300       0.05101000
C       -3.55069000       6.14998000      13.94740000       0.03400600      -0.14730300       0.05099800
C        2.84050000       2.46002000      13.94739000       0.11126100       0.09992500       0.05098600
C        0.71010000       6.14998000      13.94884000       0.00129700      -0.00144600      -0.05228400
C        0.71015000       1.23001000      13.99637000      -0.00101000      -0.00170200       0.09365700
C       -1.42025000       4.91997000      13.94893000      -0.01292100       0.01808900      -0.02573900
C        4.97095000       1.23001000      13.94893000       0.02208600      -0.00212300      -0.02574000
C        2.84055000       4.91997000      13.94894000      -0.01292000      -0.02233000      -0.02573100
C        2.84059000       0.00000000      13.94740000       0.10811200      -0.10089500       0.05101000
C        0.71019000       3.68996000      13.94739000       0.03086500       0.14634000       0.05098600
C        7.10139000       0.00000000      13.94740000      -0.14461300      -0.04418000       0.05099800
C        4.97099000       3.68996000      13.94884000      -0.00194000       0.00042500      -0.05228400
C        0.00000000       0.00000000      10.04996000      -0.10877200      -0.19010100      -0.00926300
C       -2.13040000       3.68996000      10.05098000       0.02841300       0.03114900       0.01826600
C        4.26080000       0.00000000      10.05098000       0.01429200       0.03927600       0.01826500
C        2.13040000       3.68996000      10.05318000       0.09903300       0.16978100       0.01833800
C        0.00000000       2.46002000      10.05006000      -0.10783800       0.18573000      -0.00891400
C       -2.13040000       6.14998000      10.05327000       0.09989000      -0.17419700       0.01867700
C        4.26080000       2.46002000      10.05108000       0.01517200      -0.04372200       0.01860200
C        2.13040000       6.14998000      10.05108000       0.02926400      -0.03555400       0.01859700
C        2.13044000       1.23001000      10.05005000       0.21714600      -0.00293300      -0.00892000
C        0.00004000       4.91997000      10.05108000      -0.04305700      -0.01105300       0.01860800
C        6.39124000       1.23001000      10.05327000      -0.19842400      -0.00293800       0.01867700
C        4.26084000       4.91997000      10.05108000      -0.04306100       0.00522500       0.01859300
C        7.81145000       1.23001000      10.05025000      -0.21268400      -0.00031700      -0.00862800
C       -2.84055000       4.91997000      10.05104000       0.04591300       0.00804500       0.01888800
C        3.55065000       1.23001000      10.05317000       0.19642600      -0.00035900       0.01841300
C        1.42025000       4.91997000      10.05104000       0.04588900      -0.00861200       0.01889600
C        1.42030000       0.00000000      10.05025000       0.10638700      -0.18462600      -0.00863100
C       -0.71010000       3.68996000      10.05317000      -0.09824500       0.16962500       0.01842000
C        5.68109000       0.00000000      10.05104000      -0.01571000       0.04345100       0.01889000
C        3.55069000       3.68996000      10.05104000      -0.03014700       0.03512900       0.01889300
C        1.42034000       2.45995000      10.05025000       0.10580700       0.19210700      -0.00865300
C       -0.71006000       6.14991000      10.05104000      -0.03067600      -0.02767100       0.01889400
C        5.68114000       2.45995000      10.05104000      -0.01626100      -0.03601200       0.01889000
C        3.55074000       6.14991000      10.05317000      -0.09867600      -0.16209900       0.01840600
Li       0.71014000       1.23000000      11.92319000      -0.00005500      -0.00003900      -0.34744500
49
Lattice="8.52159977 0.0 0.0 -4.260799885 7.379921881 0.0 0.0 0.0 24.0" Properties=species:S:1:pos:R:3:forces:R:3 stress="-0.006381849458578744 5.979365742596162e-06 -7.48981095105991e-08 5.979365742596162e-06 -0.006381212824647903 -7.48981095105991e-08 -7.48981095105991e-08 -7.48981095105991e-08 0.0046503237553670845" free_energy=-447.89551257 energy=-447.89382172 pbc="T T T"
C        0.00000000       0.00000000      13.96608000      -0.12630900      -0.21875800       0.00720500
C       -2.13040000       3.68996000      13.94489000      -0.00080800       0.00327500       0.00720800
C        4.26080000       0.00000000      13.94489000       0.00322400       0.00094600       0.00720800
C        2.13040000       3.68996000      13.94928000       0.04412000       0.07643600       0.01583000
C        0.00000000       2.46002000      13.96593000      -0.12709700       0.22129600       0.00723700
C       -2.13040000       6.14998000      13.94916000       0.04331300      -0.07381000       0.01580600
C        4.26080000       2.46002000      13.94477000       0.00240300       0.00165700       0.00716600
C        2.13040000       6.14998000      13.94477000      -0.00159100      -0.00065600       0.00719900
C        2.13044000       1.23001000      13.96593000       0.25518300       0.00058400       0.00723700
C        0.00004000       4.91997000      13.94477000       0.00021800       0.00291800       0.00716700
C        6.39124000       1.23001000      13.94915000      -0.08559400       0.00061400       0.01580500
C        4.26084000       4.91997000      13.94477000       0.00021200      -0.00169800       0.00720000
C        7.10130000       2.46002000      13.95038000      -0.13696100       0.04186800       0.02245400
C       -3.55069000       6.14998000      13.95038000       0.03290200      -0.14287700       0.02252400
C        2.84050000       2.46002000      13.95038000       0.10800600       0.09659700       0.02247500
C        0.71010000       6.14998000      13.94526000       0.00123900      -0.00133000      -0.03757600
C        0.71015000       1.23001000      14.00160000      -0.00107400      -0.00181500       0.00698700
C       -1.42025000       4.91997000      13.94719000      -0.01197600       0.01637300      -0.04557900
C        4.97095000       1.23001000      13.94719000       0.02012700      -0.00216300      -0.04557900
C        2.84055000       4.91997000      13.94719000      -0.01197900      -0.02070100      -0.04552000
C        2.84059000       0.00000000      13.95038000       0.10469800      -0.09765200       0.02245400
C        0.71019000       3.68996000      13.95038000       0.02961100       0.14185800       0.02247600
C        7.10139000       0.00000000      13.95038000      -0.14022800      -0.04292300       0.02252400
C        4.97099000       3.68996000      13.94526000      -0.00181000       0.00043200      -0.03757600
C        0.00000000       0.00000000      10.04931000      -0.11402200      -0.19920400      -0.01588800
C       -2.13040000       3.68996000      10.05231000       0.02914800       0.03229500       0.02338800
C        4.26080000       0.00000000      10.05231000       0.01492600       0.04047900       0.02338600
C        2.13040000       3.68996000      10.05464000       0.10102100       0.17321500      -0.00853300
C        0.00000000       2.46002000      10.04944000      -0.11308200       0.19484300      -0.01584200
C       -2.13040000       6.14998000      10.05476000       0.10188000      -0.17762400      -0.00846900
C        4.26080000       2.46002000      10.05244000       0.01580800      -0.04491900       0.02340900
C        2.13040000       6.14998000      10.05244000       0.02999400      -0.03669400       0.02340700
C        2.13044000       1.23001000      10.04944000       0.22767000      -0.00292800      -0.01584400
C        0.00004000       4.91997000      10.05244000      -0.04440100      -0.01110800       0.02341700
C        6.39124000       1.23001000      10.05476000      -0.20237800      -0.00293500      -0.00847000
C        4.26084000       4.91997000      10.05244000      -0.04440400       0.00528000       0.02340400
C        7.81145000       1.23001000      10.04964000      -0.22311800      -0.00029100      -0.01586900
C       -2.84055000       4.91997000      10.05242000       0.04724100       0.00808900       0.02334500
C        3.55065000       1.23001000      10.05463000       0.20043700      -0.00038800      -0.00871500
C        1.42025000       4.91997000      10.05242000       0.04721700      -0.00870900       0.02335200
C        1.42030000       0.00000000      10.04964000       0.11161800      -0.19363800      -0.01587100
C       -0.71010000       3.68996000      10.05463000      -0.10028500       0.17309100      -0.00870800
C        5.68109000       0.00000000      10.05242000      -0.01634500       0.04463000       0.02334700
C        3.55069000       3.68996000      10.05242000      -0.03090400       0.03623700       0.02334700
C        1.42034000       2.45995000      10.04964000       0.11101200       0.20113400      -0.01588500
C       -0.71006000       6.14991000      10.05242000      -0.03136600      -0.02871000       0.02335100
C        5.68114000       2.45995000      10.05242000      -0.01682900      -0.03712300       0.02334900
C        3.55074000       6.14991000      10.05463000      -0.10063300      -0.16548600      -0.00873400
Li       0.71014000       1.23000000      11.89553000      -0.00003500      -0.00000600      -0.17600500
49
Lattice="8.52159977 0.0 0.0 -4.260799885 7.379921881 0.0 0.0 0.0 24.0" Properties=species:S:1:pos:R:3:forces:R:3 stress="-0.006203348539087608 5.985607251722044e-06 -1.4917206810860988e-06 5.985607251722044e-06 -0.006200290199615926 -8.738112776236562e-08 -1.4917206810860988e-06 -8.738112776236562e-08 0.004754769169079615" free_energy=-447.89860299 energy=-447.89691191 pbc="T T T"
C        0.00000000       0.00000000      13.96806000      -0.12623700      -0.21884600       0.00874700
C       -2.13040000       3.68996000      13.94485000      -0.00073800       0.00387600      -0.01862000
C        4.26080000       0.00000000      13.94485000       0.00389300       0.00120100      -0.01862000
C        2.13040000       3.68996000      13.95010000       0.04336800       0.07491900       0.00366200
C        0.00000000       2.46002000      13.96791000      -0.12701800       0.22139300       0.00885200
C       -2.13040000       6.14998000      13.94997000       0.04255300      -0.07226800       0.00371100
C        4.26080000       2.46002000      13.94472000       0.00306200       0.00141600      -0.01857200
C        2.13040000       6.14998000      13.94473000      -0.00151400      -0.00123300      -0.01851100
C        2.13044000       1.23001000      13.96791000       0.25541200       0.00059500       0.00885200
C        0.00004000       4.91997000      13.94472000      -0.00013500       0.00326200      -0.01857200
C        6.39124000       1.23001000      13.94997000      -0.08369400       0.00062100       0.00371100
C        4.26084000       4.91997000      13.94473000      -0.00014200      -0.00202500      -0.01851100
C        7.10130000       2.46002000      13.95204000      -0.13458700       0.04129400       0.01445400
C       -3.55069000       6.14998000      13.95204000       0.03240800      -0.14072500       0.01447700
C        2.84050000       2.46002000      13.95203000       0.10658700       0.09489900       0.01446700
C        0.71010000       6.14998000      13.94242000       0.00131900      -0.00124100      -0.00303900
C        0.71015000       1.23001000      14.00242000      -0.00095800      -0.00183100      -0.02199800
C       -1.42025000       4.91997000      13.94414000      -0.01154200       0.01566700       0.01481500
C        4.97095000       1.23001000      13.94414000       0.01948300      -0.00224600       0.01481400
C        2.84055000       4.91997000      13.94416000      -0.01154600      -0.02016400       0.01484700
C        2.84059000       0.00000000      13.95204000       0.10319800      -0.09599000       0.01445400
C        0.71019000       3.68996000      13.95203000       0.02903500       0.13967400       0.01446800
C        7.10139000       0.00000000      13.95204000      -0.13793200      -0.04238200       0.01447600
C        4.97099000       3.68996000      13.94242000      -0.00158900       0.00043900      -0.00303900
C        0.00000000       0.00000000      10.04824000      -0.11682800      -0.20428200      -0.01860200
C       -2.13040000       3.68996000      10.05397000       0.02971600       0.03294300       0.01150800
C        4.26080000       0.00000000      10.05397000       0.01539200       0.04118600       0.01150800
C        2.13040000       3.68996000      10.05441000       0.10221100       0.17505800       0.00498100
C        0.00000000       2.46002000      10.04837000      -0.11588300       0.19992900      -0.01863300
C       -2.13040000       6.14998000      10.05454000       0.10306700      -0.17945200       0.00496100
C        4.26080000       2.46002000      10.05411000       0.01627100      -0.04561500       0.01144200
C        2.13040000       6.14998000      10.05410000       0.03056700      -0.03732700       0.01144200
C        2.13044000       1.23001000      10.04837000       0.23366400      -0.00292200      -0.01863500
C        0.00004000       4.91997000      10.05411000      -0.04504600      -0.01116500       0.01144900
C        6.39124000       1.23001000      10.05454000      -0.20436600      -0.00293200       0.00495700
C        4.26084000       4.91997000      10.05410000      -0.04504800       0.00534900       0.01144300
C        7.81145000       1.23001000      10.04857000      -0.22884100      -0.00025100      -0.01853400
C       -2.84055000       4.91997000      10.05409000       0.04813100       0.00810500       0.01164300
C        3.55065000       1.23001000      10.05438000       0.20273300      -0.00036700       0.00498000
C        1.42025000       4.91997000      10.05409000       0.04810800      -0.00880400       0.01164100
C        1.42030000       0.00000000      10.04857000       0.11469500      -0.19867600      -0.01853200
C       -0.71010000       3.68996000      10.05439000      -0.10123500       0.17498800       0.00498600
C        5.68109000       0.00000000      10.05409000      -0.01659500       0.04530500       0.01164400
C        3.55069000       3.68996000      10.05409000      -0.03125100       0.03685800       0.01163500
C        1.42034000       2.45995000      10.04857000       0.10797500       0.20613500      -0.02087600
C       -0.71006000       6.14991000      10.05409000      -0.03162200      -0.02926200       0.01165400
C        5.68114000       2.45995000      10.05409000      -0.01699000      -0.03773100       0.01165700
C        3.55074000       6.14991000      10.05438000      -0.10159800      -0.16736300       0.00495000
Li       0.71013000       1.23000000      11.87930000       0.00008600      -0.00001300      -0.08399400
49
Lattice="8.52159977 0.0 0.0 -4.260799885 7.379921881 0.0 0.0 0.0 24.0" Properties=species:S:1:pos:R:3:forces:R:3 stress="-0.006203448403233621 6.05426385210676e-06 -8.738112776236562e-08 6.05426385210676e-06 -0.0062028180108119075 -1.0610565514001541e-07 -8.738112776236562e-08 -1.0610565514001541e-07 0.004868252288006424" free_energy=-447.8996858 energy=-447.89799451 pbc="T T T"
C        0.00000000       0.00000000      13.96971000      -0.12637900      -0.21887900       0.00639800
C       -2.13040000       3.68996000      13.94361000      -0.00068800       0.00407400      -0.00155200
C        4.26080000       0.00000000      13.94361000       0.00385500       0.00145000      -0.00155200
C        2.13040000       3.68996000      13.95049000       0.04251300       0.07365400       0.01499700
C        0.00000000       2.46002000      13.96956000      -0.12715700       0.22143300       0.00654800
C       -2.13040000       6.14998000      13.95036000       0.04169400      -0.07099100       0.01506000
C        4.26080000       2.46002000      13.94347000       0.00302000       0.00116800      -0.00145000
C        2.13040000       6.14998000      13.94348000      -0.00145800      -0.00142500      -0.00140100
C        2.13044000       1.23001000      13.96956000       0.25533000       0.00060200       0.00654900
C        0.00004000       4.91997000      13.94347000      -0.00051500       0.00320800      -0.00144900
C        6.39124000       1.23001000      13.95036000      -0.08234300       0.00062200       0.01506000
C        4.26084000       4.91997000      13.94348000      -0.00052100      -0.00196600      -0.00140100
C        7.10130000       2.46002000      13.95361000      -0.13281300       0.04106100       0.00316900
C       -3.55069000       6.14998000      13.95362000       0.03153800      -0.13905400       0.00317200
C        2.84050000       2.46002000      13.95361000       0.10539800       0.09332900       0.00318000
C        0.71010000       6.14998000      13.94100000       0.00117500      -0.00120300      -0.00731100
C        0.71015000       1.23001000      14.00185000      -0.00107700      -0.00181900      -0.01991000
C       -1.42025000       4.91997000      13.94378000      -0.01141900       0.01523100       0.00589500