49
Lattice="8.52159977 0.0 0.0 -4.260799885 7.379921881 0.0 0.0 0.0 24.0" Properties=species:S:1:pos:R:3:forces:R:3 stress="-0.006419635554826841 5.798361977945547e-06 -6.241509125883259e-09 5.798361977945547e-06 -0.006418830400149601 8.738112776236562e-08 -6.241509125883259e-09 8.738112776236562e-08 0.0006723228800218929" free_energy=-447.60238508 energy=-447.60069553 pbc="T T T"
C        0.00000000       0.00000000      13.80000000      -0.14555400      -0.25210900       0.06585200
C       -2.13040000       3.68996000      13.80000000       0.00414900      -0.00591800      -0.00843800
C        4.26080000       0.00000000      13.80000000      -0.00720300       0.00063600      -0.00843800
C        2.13040000       3.68996000      13.80000000       0.05233400       0.09064600       0.00714400
C        0.00000000       2.46002000      13.80000000      -0.14641400       0.25469100       0.06583500
C       -2.13040000       6.14998000      13.80000000       0.05151600      -0.08803500       0.00715900
C        4.26080000       2.46002000      13.80000000      -0.00802400       0.00196300      -0.00842100
C        2.13040000       6.14998000      13.80000000       0.00335100       0.00853300      -0.00842000
C        2.13044000       1.23001000      13.80000000       0.29377700       0.00054400       0.06583600
C        0.00004000       4.91997000      13.80000000       0.00570800      -0.00596700      -0.00841900
C        6.39124000       1.23001000      13.80000000      -0.10200100       0.00059800       0.00716000
C        4.26084000       4.91997000      13.80000000       0.00571100       0.00716900      -0.00841900
C        7.10130000       2.46002000      13.80000000      -0.15174000       0.04535800      -0.00303900
C       -3.55069000       6.14998000      13.80000000       0.03733000      -0.15650600      -0.00302700
C        2.84050000       2.46002000      13.80000000       0.11758500       0.10818200      -0.00303500
C        0.71010000       6.14998000      13.80000000       0.00104700      -0.00098000       0.00559100
C        0.71015000       1.23001000      13.80000000      -0.00154600      -0.00261500       2.20715100
C       -1.42025000       4.91997000      13.80000000      -0.01810900       0.02620300      -0.00301700
C        4.97095000       1.23001000      13.80000000       0.03169800      -0.00255400      -0.00301600
C        2.84055000       4.91997000      13.80000000      -0.01810300      -0.03129700      -0.00301400
C        2.84059000       0.00000000      13.80000000       0.11509900      -0.10870100      -0.00303900
C        0.71019000       3.68996000      13.80000000       0.03484100       0.15595100      -0.00303600
C        7.10139000       0.00000000      13.80000000      -0.15425800      -0.04589600      -0.00302800
C        4.97099000       3.68996000      13.80000000      -0.00142100       0.00044900       0.00559000
C        0.00000000       0.00000000      10.20000000      -0.11871600      -0.20730800      -0.08931300
C       -2.13040000       3.68996000      10.20000000       0.03347900       0.02915300       0.00109800
C        4.26080000       0.00000000      10.20000000       0.01001900       0.04267400       0.00110000
C        2.13040000       3.68996000      10.20000000       0.09823000       0.16840700       0.03876500
C        0.00000000       2.46002000      10.20000000      -0.11777800       0.20294400      -0.08930400
C       -2.13040000       6.14998000      10.20000000       0.09907200      -0.17276900       0.03875000
C        4.26080000       2.46002000      10.20000000       0.01088400      -0.04708200       0.00108000
C        2.13040000       6.14998000      10.20000000       0.03434200      -0.03351300       0.00108100
C        2.13044000       1.23001000      10.20000000       0.23700100      -0.00290700      -0.08932400
C        0.00004000       4.91997000      10.20000000      -0.04384100      -0.01642800       0.00108100
C        6.39124000       1.23001000      10.20000000      -0.19679500      -0.00291400       0.03874600
C        4.26084000       4.91997000      10.20000000      -0.04385200       0.01066100       0.00108000
C        7.81145000       1.23001000      10.20000000      -0.22984400      -0.00076900      -0.08325700
C       -2.84055000       4.91997000      10.20000000       0.04757900       0.01343400      -0.00578900
C        3.55065000       1.23001000      10.20000000       0.19227200      -0.00073900       0.03218700
C        1.42025000       4.91997000      10.20000000       0.04755300      -0.01489400      -0.00578700
C        1.42030000       0.00000000      10.20000000       0.11458600      -0.19972700      -0.08325100
C       -0.71010000       3.68996000      10.20000000      -0.09648200       0.16582200       0.03219100
C        5.68109000       0.00000000      10.20000000      -0.01186500       0.04757600      -0.00579000
C        3.55069000       3.68996000      10.20000000      -0.03640600       0.03341900      -0.00579200
C        1.42034000       2.45995000      10.20000000       0.11482900       0.20768800      -0.08328400
C       -0.71006000       6.14991000      10.20000000      -0.03615200      -0.02551100      -0.00578900
C        5.68114000       2.45995000      10.20000000      -0.01163000      -0.03968600      -0.00579200
C        3.55074000       6.14991000      10.20000000      -0.09625800      -0.15793300       0.03219400
Li       0.71015000       1.23001000      12.00000000      -0.00000300       0.00005500      -2.02639200
49
Lattice="8.52159977 0.0 0.0 -4.260799885 7.379921881 0.0 0.0 0.0 24.0" Properties=species:S:1:pos:R:3:forces:R:3 stress="-0.006432892520210217 5.941916687840862e-06 6.241509125883259e-09 5.941916687840862e-06 -0.006432205954206369 8.113961863648234e-08 6.241509125883259e-09 8.113961863648234e-08 0.002154625123837034" free_energy=-447.78592711 energy=-447.78423675 pbc="T T T"
C        0.00000000       0.00000000      13.80318000      -0.09979900      -0.17285300       0.57322200
C       -2.13040000       3.68996000      13.79959000       0.00198900      -0.00617200      -0.05284900
C        4.26080000       0.00000000      13.79959000      -0.00634700      -0.00136100      -0.05284800
C        2.13040000       3.68996000      13.80034000       0.04749700       0.08227200       0.04479100
C        0.00000000       2.46002000      13.80318000      -0.10066700       0.17545900       0.57275400
C       -2.13040000       6.14998000      13.80035000       0.04671800      -0.07970900       0.04489000
C        4.26080000       2.46002000      13.79959000      -0.00715900       0.00396400      -0.05281000
C        2.13040000       6.14998000      13.79959000       0.00119200       0.00878900      -0.05280600
C        2.13044000       1.23001000      13.80318000       0.20228200       0.00054900       0.57275100
C        0.00004000       4.91997000      13.79959000       0.00700600      -0.00421600      -0.05281000
C        6.39124000       1.23001000      13.80035000      -0.09239500       0.00060700       0.04488900
C        4.26084000       4.91997000      13.79959000       0.00700900       0.00543000      -0.05280600
C        7.10130000       2.46002000      13.79985000      -0.15402400       0.04327000      -0.02462400
C       -3.55069000       6.14998000      13.79985000       0.04026800      -0.15743600      -0.02463000
C        2.84050000       2.46002000      13.79985000       0.11691600       0.11119300      -0.02463900
C        0.71010000       6.14998000      13.80027000       0.00104600      -0.00098400      -0.01509400
C        0.71015000       1.23001000      13.90648000      -0.00143700      -0.00243000      -0.52461800
C       -1.42025000       4.91997000      13.79985000      -0.01478300       0.02043800       0.00692000
C        4.97095000       1.23001000      13.79985000       0.02504400      -0.00255800       0.00692000
C        2.84055000       4.91997000      13.79985000      -0.01477000      -0.02552600       0.00706900
C        2.84059000       0.00000000      13.79985000       0.11443600      -0.11172400      -0.02462500
C        0.71019000       3.68996000      13.79985000       0.03778700       0.15687700      -0.02464000
C        7.10139000       0.00000000      13.79985000      -0.15652900      -0.04381700      -0.02463100
C        4.97099000       3.68996000      13.80027000      -0.00142100       0.00044400      -0.01509400
C        0.00000000       0.00000000      10.19569000      -0.14383800      -0.25084300      -0.13586400
C       -2.13040000       3.68996000      10.20005000       0.03645400       0.03249700       0.00636700
C        4.26080000       0.00000000      10.20005000       0.01145100       0.04690700       0.00636700
C        2.13040000       3.68996000      10.20187000       0.10517100       0.18040300       0.00329000
C        0.00000000       2.46002000      10.19569000      -0.14288700       0.24644700      -0.13552700
C       -2.13040000       6.14998000      10.20187000       0.10601100      -0.18478600       0.00314900
C        4.26080000       2.46002000      10.20005000       0.01232100      -0.05134600       0.00635900
C        2.13040000       6.14998000      10.20005000       0.03732100      -0.03688400       0.00635700
C        2.13044000       1.23001000      10.19569000       0.28725600      -0.00292400      -0.13553200
C        0.00004000       4.91997000      10.20005000      -0.04822300      -0.01733500       0.00636200
C        6.39124000       1.23001000      10.20187000      -0.21064300      -0.00293400       0.00314800
C        4.26084000       4.91997000      10.20005000      -0.04823400       0.01153400       0.00635200
C        7.81145000       1.23001000      10.19598000      -0.27960600      -0.00075700      -0.13480600
C       -2.84055000       4.91997000      10.19972000       0.05210400       0.01462900       0.00945100
C        3.55065000       1.23001000      10.20155000       0.20526800      -0.00072600       0.00315400
C        1.42025000       4.91997000      10.19972000       0.05207800      -0.01606600       0.00944500
C        1.42030000       0.00000000      10.19598000       0.13945600      -0.24279200      -0.13480400
C       -0.71010000       3.68996000      10.20155000      -0.10299200       0.17710200       0.00316000
C        5.68109000       0.00000000      10.19972000      -0.01311400       0.05210900       0.00945100
C        3.55069000       3.68996000      10.19972000      -0.03970800       0.03676900       0.00944300
C        1.42034000       2.45995000      10.19598000       0.13968700       0.25077100      -0.13476700
C       -0.71006000       6.14991000      10.19972000      -0.03945000      -0.02882500       0.00944600
C        5.68114000       2.45995000      10.19972000      -0.01288400      -0.04418400       0.00944200
C        3.55074000       6.14991000      10.20155000      -0.10277100      -0.16917700       0.00313600
Li       0.71015000       1.23001000      11.90224000      -0.00008600      -0.00009600      -0.15726300
49
Lattice="8.52159977 0.0 0.0 -4.260799885 7.379921881 0.0 0.0 0.0 24.0" Properties=species:S:1:pos:R:3:forces:R:3 stress="-0.006376787594677652 5.941916687840862e-06 -4.369056388118281e-08 5.941916687840862e-06 -0.006376132236219435 -1.2483018251766519e-08 -4.369056388118281e-08 -1.2483018251766519e-08 0.0021440395243595358" free_energy=-447.81907529 energy=-447.81738473 pbc="T T T"
C        0.00000000       0.00000000      13.82596000      -0.12541600      -0.21722200       0.13397300
C       -2.13040000       3.68996000      13.79749000       0.00291000      -0.00083200      -0.03555100
C        4.26080000       0.00000000      13.79749000      -0.00218300       0.00210800      -0.03555000
C        2.13040000       3.68996000      13.80212000       0.04620700       0.08003900      -0.00903100
C        0.00000000       2.46002000      13.82594000      -0.12625800       0.21980100       0.13260500
C       -2.13040000       6.14998000      13.80213000       0.04541300      -0.07748100      -0.00923600
C        4.26080000       2.46002000      13.79749000      -0.00299800       0.00046800      -0.03533900
C        2.13040000       6.14998000      13.79750000       0.00211400       0.00342200      -0.03528500
C        2.13044000       1.23001000      13.82594000       0.25347800       0.00055900       0.13260400
C        0.00004000       4.91997000      13.79750000       0.00189700      -0.00236000      -0.03534000
C        6.39124000       1.23001000      13.80213000      -0.08981400       0.00059100      -0.00923700
C        4.26084000       4.91997000      13.79750000       0.00189900       0.00354600      -0.03528400
C        7.10130000       2.46002000      13.79887000      -0.13821600       0.03850700       0.12375100
C       -3.55069000       6.14998000      13.79888000       0.03646100      -0.14135200       0.12379700
C        2.84050000       2.46002000      13.79887000       0.10488600       0.09985100       0.12373800
C        0.71010000       6.14998000      13.79967000       0.00104000      -0.00099700      -0.07230100
C        0.71015000       1.23001000      13.88563000      -0.00114100      -0.00191900       0.19101100
C       -1.42025000       4.91997000      13.80013000      -0.01384800       0.01879000      -0.02575000
C        4.97095000       1.23001000      13.80013000       0.02315000      -0.00257100      -0.02575100
C        2.84055000       4.91997000      13.80014000      -0.01383300      -0.02390300      -0.02572300
C        2.84059000       0.00000000      13.79887000       0.10240700      -0.10041500       0.12375000
C        0.71019000       3.68996000      13.79887000       0.03398000       0.14078700       0.12373900
C        7.10139000       0.00000000      13.79888000      -0.14069600      -0.03907300       0.12379600
C        4.97099000       3.68996000      13.79967000      -0.00143000       0.00043200      -0.07230100
C        0.00000000       0.00000000      10.19029000      -0.14445000      -0.25190500      -0.11096500
C       -2.13040000       3.68996000      10.20031000       0.03603200       0.03300400       0.01024900
C        4.26080000       0.00000000      10.20031000       0.01210200       0.04679400       0.01024900
C        2.13040000       3.68996000      10.20200000       0.10533800       0.18069200      -0.01926700
C        0.00000000       2.46002000      10.19031000      -0.14350100       0.24749700      -0.11041500
C       -2.13040000       6.14998000      10.20199000       0.10618000      -0.18510300      -0.01932800
C        4.26080000       2.46002000      10.20030000       0.01297300      -0.05125900       0.01022000
C        2.13040000       6.14998000      10.20030000       0.03689800      -0.03741700       0.01022000
C        2.13044000       1.23001000      10.19030000       0.28847300      -0.00293300      -0.11041500
C        0.00004000       4.91997000      10.20030000      -0.04847100      -0.01672900       0.01022300
C        6.39124000       1.23001000      10.20199000      -0.21100000      -0.00294800      -0.01933200
C        4.26084000       4.91997000      10.20030000      -0.04848200       0.01090000       0.01021700
C        7.81145000       1.23001000      10.19063000      -0.28083100      -0.00073100      -0.11137800
C       -2.84055000       4.91997000      10.20010000       0.05230800       0.01424100       0.01026000
C        3.55065000       1.23001000      10.20168000       0.20557300      -0.00073800      -0.02029200
C        1.42025000       4.91997000      10.20010000       0.05228100      -0.01570000       0.01030200
C        1.42030000       0.00000000      10.19063000       0.14008900      -0.24383700      -0.11137800
C       -0.71010000       3.68996000      10.20168000      -0.10315700       0.17736300      -0.02028700
C        5.68109000       0.00000000      10.20010000      -0.01355400       0.05209300       0.01026200
C        3.55069000       3.68996000      10.20010000      -0.03949500       0.03712900       0.01030100
C        1.42034000       2.45995000      10.19063000       0.14026500       0.25175600      -0.11122600
C       -0.71006000       6.14991000      10.20010000      -0.03923700      -0.02920700       0.01027000
C        5.68114000       2.45995000      10.20010000      -0.01332400      -0.04418900       0.01027000
C        3.55074000       6.14991000      10.20168000      -0.10293400      -0.16945500      -0.02041300
Li       0.71014000       1.23001000      11.89599000      -0.00008500      -0.00009500      -0.20943000
49
Lattice="8.52159977 0.0 0.0 -4.260799885 7.379921881 0.0 0.0 0.0 24.0" Properties=species:S:1:pos:R:3:forces:R:3 stress="-0.0063672380857150495 5.929433669589095e-06 -6.241509125883259e-08 5.929433669589095e-06 -0.0063666201763115885 -3.744905475529955e-08 -6.241509125883259e-08 -3.744905475529955e-08 0.002255637707530328" free_energy=-447.83489987 energy=-447.83320851 pbc="T T T"
C        0.00000000       0.00000000      13.83508000      -0.12582400      -0.21792800       0.11062300
C       -2.13040000       3.68996000      13.79538000       0.00385400      -0.00057400      -0.00576200
C        4.26080000       0.00000000      13.79538000      -0.00243300       0.00305500      -0.00576300
C        2.13040000       3.68996000      13.80177000       0.04508700       0.07810000       0.05499800
C        0.00000000       2.46002000      13.83499000      -0.12662400       0.22043400       0.11002500
C       -2.13040000       6.14998000      13.80177000       0.04429600      -0.07553400       0.05496600
C        4.26080000       2.46002000      13.79540000      -0.00324800      -0.00046900      -0.00554700
C        2.13040000       6.14998000      13.79540000       0.00306200       0.00316800      -0.00550500
C        2.13044000       1.23001000      13.83499000       0.25420700       0.00055900       0.11002300
C        0.00004000       4.91997000      13.79540000       0.00121000      -0.00304400      -0.00554600
C        6.39124000       1.23001000      13.80177000      -0.08757100       0.00059800       0.05496700
C        4.26084000       4.91997000      13.79540000       0.00120500       0.00424000      -0.00550500
C        7.10130000       2.46002000      13.80556000      -0.13548500       0.03883400       0.07973000
C       -3.55069000       6.14998000      13.80556000       0.03481100      -0.13911500       0.08023700
C        2.84050000       2.46002000      13.80556000       0.10380700       0.09732800       0.07982300
C        0.71010000       6.14998000      13.79567000       0.00104900      -0.00100400      -0.07483200
C        0.71015000       1.23001000      13.89441000      -0.00125900      -0.00212600       0.11206500
C       -1.42025000       4.91997000      13.79874000      -0.01317100       0.01762700      -0.04670500
C        4.97095000       1.23001000      13.79874000       0.02180400      -0.00256700      -0.04670500
C        2.84055000       4.91997000      13.79875000      -0.01315500      -0.02273100      -0.04644300
C        2.84059000       0.00000000      13.80556000       0.10132500      -0.09788700       0.07973000
C        0.71019000       3.68996000      13.80556000       0.03233600       0.13859100       0.07982300
C        7.10139000       0.00000000      13.80556000      -0.13793200      -0.03938400       0.08023600
C        4.97099000       3.68996000      13.79567000      -0.00144000       0.00043600      -0.07483200
C        0.00000000       0.00000000      10.18380000      -0.14697600      -0.25628200      -0.11363900
C       -2.13040000       3.68996000      10.20089000       0.03596900       0.03342600       0.01272400
C        4.26080000       0.00000000      10.20089000       0.01250100       0.04694900       0.01272500
C        2.13040000       3.68996000      10.20096000       0.10541700       0.18082600      -0.02716700
C        0.00000000       2.46002000      10.18385000      -0.14603200       0.25189900      -0.11303800
C       -2.13040000       6.14998000      10.20095000       0.10625800      -0.18523000      -0.02713100
C        4.26080000       2.46002000      10.20088000       0.01337200      -0.05140600       0.01268000
C        2.13040000       6.14998000      10.20088000       0.03683200      -0.03783100       0.01264600
C        2.13044000       1.23001000      10.18384000       0.29355300      -0.00292700      -0.11303500
C        0.00004000       4.91997000      10.20088000      -0.04879500      -0.01645800       0.01268200
C        6.39124000       1.23001000      10.20095000      -0.21114700      -0.00294600      -0.02713500
C        4.26084000       4.91997000      10.20088000      -0.04880500       0.01063300       0.01264700
C        7.81145000       1.23001000      10.18412000      -0.28599300      -0.00064200      -0.11345900
C       -2.84055000       4.91997000      10.20069000       0.05249700       0.01393200       0.01280300
C        3.55065000       1.23001000      10.20058000       0.20606100      -0.00073300      -0.02729100
C        1.42025000       4.91997000      10.20069000       0.05246900      -0.01537800       0.01286400
C        1.42030000       0.00000000      10.18412000       0.14274500      -0.24826000      -0.11345600
C       -0.71010000       3.68996000      10.20058000      -0.10340000       0.17779000      -0.02728900
C        5.68109000       0.00000000      10.20069000      -0.01391800       0.05210400       0.01280400
C        3.55069000       3.68996000      10.20069000      -0.03931300       0.03745400       0.01286300
C        1.42034000       2.45995000      10.18412000       0.14278100       0.25611100      -0.11319900
C       -0.71006000       6.14991000      10.20069000      -0.03905500      -0.02951900       0.01283700
C        5.68114000       2.45995000      10.20069000      -0.01368900      -0.04418600       0.01284100
C        3.55074000       6.14991000      10.20057000      -0.10316800      -0.16986000      -0.02757200
Li       0.71014000       1.23000000      11.88405000      -0.00007300      -0.00007800      -0.07380800
49
Lattice="8.52159977 0.0 0.0 -4.260799885 7.379921881 0.0 0.0 0.0 24.0" Properties=species:S:1:pos:R:3:forces:R:3 stress="-0.006261013841901643 5.954399706092628e-06 -9.362263688824886e-08 5.954399706092628e-06 -0.00626039593249818 -8.738112776236562e-08 -9.362263688824886e-08 -8.738112776236562e-08 0.00248021968889786" free_energy=-447.84948834 energy=-447.8477966 pbc="T T T"
C        0.00000000       0.00000000      13.84507000      -0.12704300      -0.22004000       0.07855000
C       -2.13040000       3.68996000      13.79464000       0.00509600      -0.00128100      -0.02118500
C        4.26080000       0.00000000      13.79464000      -0.00366700       0.00377700      -0.02118500
C        2.13040000       3.68996000      13.80580000       0.04469100       0.07741500       0.04990500
C        0.00000000       2.46002000      13.84492000      -0.12781100       0.22251200       0.07827600
C       -2.13040000       6.14998000      13.80579000       0.04389800      -0.07483800       0.04964800
C        4.26080000       2.46002000      13.79467000      -0.00447900      -0.00117500      -0.02109800
C        2.13040000       6.14998000      13.79467000       0.00430800       0.00389300      -0.02075600
C        2.13044000       1.23001000      13.84492000       0.25660000       0.00056900       0.07827500
C        0.00004000       4.91997000      13.79467000       0.00121300      -0.00446200      -0.02109700
C        6.39124000       1.23001000      13.80579000      -0.08677000       0.00060100       0.04964800
C        4.26084000       4.91997000      13.79467000       0.00120900       0.00568200      -0.02075600
C        7.10130000       2.46002000      13.81212000      -0.13365800       0.03980900       0.05457700
C       -3.55069000       6.14998000      13.81216000       0.03306200      -0.13810400       0.05502300
C        2.84050000       2.46002000      13.81213000       0.10381900       0.09522500       0.05468800
C        0.71010000       6.14998000      13.78973000       0.00107600      -0.00103800      -0.00057900
C        0.71015000       1.23001000      13.90285000      -0.00135400      -0.00229300       0.11329600
C       -1.42025000       4.91997000      13.79519000      -0.01317300       0.01766200      -0.00011200
C        4.97095000       1.23001000      13.79519000       0.02183500      -0.00255100      -0.00011200
C        2.84055000       4.91997000      13.79522000      -0.01315200      -0.02272400       0.00013500
C        2.84059000       0.00000000      13.81212000       0.10125600      -0.09581800       0.05457700
C        0.71019000       3.68996000      13.81213000       0.03050900       0.13755100       0.05468900
C        7.10139000       0.00000000      13.81216000      -0.13618200      -0.04039400       0.05502300
C        4.97099000       3.68996000      13.78973000      -0.00148300       0.00044200      -0.00057900
C        0.00000000       0.00000000      10.17455000      -0.14802100      -0.25809500      -0.11226500
C       -2.13040000       3.68996000      10.20189000       0.03593900       0.03353600       0.01392000
C        4.26080000       0.00000000      10.20189000       0.01261200       0.04697700       0.01392100
C        2.13040000       3.68996000      10.19886000       0.10464800       0.17949200      -0.03028300
C        0.00000000       2.46002000      10.17465000      -0.14707800       0.25373500      -0.11175400
C       -2.13040000       6.14998000      10.19885000       0.10548400      -0.18387700      -0.03019600
C        4.26080000       2.46002000      10.20188000       0.01348400      -0.05142100       0.01386900
C        2.13040000       6.14998000      10.20188000       0.03680100      -0.03792500       0.01372900
C        2.13044000       1.23001000      10.17465000       0.29566600      -0.00291800      -0.11175000
C        0.00004000       4.91997000      10.20189000      -0.04886300      -0.01637000       0.01386700
C        6.39124000       1.23001000      10.19885000      -0.20958800      -0.00294200      -0.03020200
C        4.26084000       4.91997000      10.20188000      -0.04886900       0.01055800       0.01373500
C        7.81145000       1.23001000      10.17488000      -0.28832500      -0.00042500      -0.11205600
C       -2.84055000       4.91997000      10.20170000       0.05240900       0.01376800       0.01394900
C        3.55065000       1.23001000      10.19847000       0.20492900      -0.00072900      -0.03033200
C        1.42025000       4.91997000      10.20171000       0.05237900      -0.01520100       0.01396300
C        1.42030000       0.00000000      10.17488000       0.14409800      -0.25016900      -0.11205100
C       -0.71010000       3.68996000      10.19847000      -0.10283200       0.17681400      -0.03033400
C        5.68109000       0.00000000      10.20170000      -0.01401700       0.05194800       0.01394700
C        3.55069000       3.68996000      10.20171000      -0.03911600       0.03746600       0.01396500
C        1.42034000       2.45995000      10.17491000       0.14377400       0.25782500      -0.11177800
C       -0.71006000       6.14991000      10.20171000      -0.03885800      -0.02951700       0.01401000
C        5.68114000       2.45995000      10.20171000      -0.01379000      -0.04401300       0.01401700
C        3.55074000       6.14991000      10.19844000      -0.10259000      -0.16885400      -0.03075900
Li       0.71013000       1.23000000      11.87703000      -0.00007500      -0.00008400      -0.01198300
49
Lattice="8.52159977 0.0 0.0 -4.260799885 7.379921881 0.0 0.0 0.0 24.0" Properties=species:S:1:pos:R:3:forces:R:3 stress="-0.006208422886006951 8.232550537040018e-06 -8.550867502460063e-07 8.232550537040018e-06 -0.006205177301261491 -1.3980980441978499e-06 -8.550867502460063e-07 -1.3980980441978499e-06 0.0026441903751439387" free_energy=-447.8616977 energy=-447.86000599 pbc="T T T"
C        0.00000000       0.00000000      13.85470000      -0.12806300      -0.22180700       0.05308000
C       -2.13040000       3.68996000      13.79277000       0.00749500      -0.00302600       0.00418800
C        4.26080000       0.00000000      13.79277000      -0.00637700       0.00498200       0.00418800
C        2.13040000       3.68996000      13.81046000       0.04509100       0.07810700       0.02496100
C        0.00000000       2.46002000      13.85451000      -0.12880400       0.22454600       0.05333100
C       -2.13040000       6.14998000      13.81043000       0.04429300      -0.07521000       0.02461100
C        4.26080000       2.46002000      13.79282000      -0.00718800      -0.00206000       0.00430800
C        2.13040000       6.14998000      13.79285000       0.00670900       0.00595900       0.00472800
C        2.13044000       1.23001000      13.85451000       0.25885800       0.00072700       0.05333000
C        0.00004000       4.91997000      13.79282000       0.00180200      -0.00725200       0.00430900
C        6.39124000       1.23001000      13.81043000      -0.08728900       0.00075700       0.02461100
C        4.26084000       4.91997000      13.79285000       0.00179900       0.00879400       0.00472800
C        7.10130000       2.46002000      13.81832000      -0.13249200       0.04175700       0.04010400
C       -3.55069000       6.14998000      13.81840000       0.03107200      -0.13810300       0.04046700
C        2.84050000       2.46002000      13.81833000       0.10507800       0.09346500       0.04028900
C        0.71010000       6.14998000      13.78752000       0.00118800      -0.00091000      -0.01906300
C        0.71015000       1.23001000      13.91326000      -0.00564700      -0.00973200       0.06942300
C       -1.42025000       4.91997000      13.79397000      -0.01347100       0.01849600       0.00073300