13
Lattice="4.260799885 0.0 0.0 -2.130399942 3.689960941 0.0 0.0 0.0 24.0" Properties=species:S:1:pos:R:3:forces:R:3 energy=-113.43961505304523 stress="-0.08140072270247445 3.029965156418759e-06 4.8809006670903e-18 3.029965156418759e-06 -0.08140423648000811 -3.595307041182455e-18 4.8809006670903e-18 -3.595307041182455e-18 -0.00022982108121209996" free_energy=-113.43961505304523 pbc="T T T"
C        0.00000000       0.00000000      13.87500000      -0.00679676      -0.01136564       0.00386174
C       -0.00002000       2.45999000      13.87500000       0.01444552      -0.00028248       0.00383809
C        2.13042000       1.22997000      13.87500000      -0.00836364       0.01303685       0.00383928
C        2.84053000       2.45999000      13.87500000      -0.01378195      -0.00070975       0.00387802
C        0.71010000       1.23001000      13.87500000       0.00871683       0.01102373       0.00384289
C        2.84055000       0.00000000      13.87500000       0.00580708      -0.01166472       0.00386502
C        0.00000000       0.00000000      10.12500000      -0.00679676      -0.01136564      -0.00386174
C       -0.00002000       2.45999000      10.12500000       0.01444552      -0.00028248      -0.00383809
C        2.13042000       1.22997000      10.12500000      -0.00836364       0.01303685      -0.00383928
C        2.84053000       2.45999000      10.12500000      -0.01378195      -0.00070975      -0.00387802
C        0.71010000       1.23001000      10.12500000       0.00871683       0.01102373      -0.00384289
C        2.84055000       0.00000000      10.12500000       0.00580708      -0.01166472      -0.00386502
Li       1.42030000       2.45999000      12.00000000      -0.00005416      -0.00007596      -0.00000000
13
Lattice="4.260799885 0.0 0.0 -2.130399942 3.689960941 0.0 0.0 0.0 24.0" Properties=species:S:1:pos:R:3:forces:R:3 energy=-113.43974122851513 stress="-0.08144250377957189 3.027093142067935e-06 -1.390933316683295e-17 3.027093142067935e-06 -0.08144608067852123 1.8498263507556974e-17 -1.390933316683295e-17 1.8498263507556974e-17 -3.9742240574553944e-05" free_energy=-113.43974122851513 pbc="T T T"
C        0.00000000       0.00000000      13.87968926      -0.00743748      -0.01248344       0.00071044
C       -0.00002000       2.45999000      13.87966054       0.01562750      -0.00026241       0.00106116
C        2.13042000       1.22997000      13.87966198      -0.00894021       0.01408554       0.00103911
C        2.84053000       2.45999000      13.87970903      -0.01505685      -0.00068860       0.00017585
C        0.71010000       1.23001000      13.87966637       0.00930362       0.01203971       0.00066345
C        2.84055000       0.00000000      13.87969324       0.00645895      -0.01274830       0.00033899
C        0.00000000       0.00000000      10.12031074      -0.00743748      -0.01248344      -0.00071044
C       -0.00002000       2.45999000      10.12033946       0.01562750      -0.00026241      -0.00106116
C        2.13042000       1.22997000      10.12033802      -0.00894021       0.01408554      -0.00103911
C        2.84053000       2.45999000      10.12029097      -0.01505685      -0.00068860      -0.00017585
C        0.71010000       1.23001000      10.12033363       0.00930362       0.01203971      -0.00066345
C        2.84055000       0.00000000      10.12030676       0.00645895      -0.01274830      -0.00033899
Li       1.42023423       2.45989776      12.00000000       0.00008893       0.00011500      -0.00000000
