17
Lattice="4.920000076 0.0 0.0 -2.46 4.260845053 0.0 0.0 0.0 24.0" Properties=species:S:1:pos:R:3:forces:R:3 energy=-149.7449024407055 stress="-0.07443678196469154 2.684363103857482e-09 -8.145603515559706e-12 2.684363103857482e-09 -0.07448005452582641 -2.549800337319896e-07 -8.145603515559706e-12 -2.549800337319896e-07 -0.019015815181132528" free_energy=-149.7449024407055 pbc="T T T"
C        0.00000000       0.00000000      13.67500000      -0.00000177      -0.34901136       0.16796882
C        3.69000000       2.13000000      13.67500000      -0.27955107       0.16528228       0.16792337
C        2.46000000       0.00000000      13.67500000       0.00000055      -0.02504180       0.10323129
C        1.23000000       2.13000000      13.67500000       0.27955292       0.16528372       0.16792342
C       -0.00000000       1.42000000      13.67500000      -0.00000208      -0.00237262       3.80295302
C       -1.23000000       3.55000000      13.67500000       0.11052019       0.08858508       0.04826856
C        2.46000000       1.42000000      13.67500000       0.00000035      -0.13125435       0.04859989
C        1.23000000       3.55000000      13.67500000      -0.11051906       0.08858633       0.04826854
C        0.00000000       0.00000000      10.32500000      -0.00000225      -0.38008732      -0.22079785
C        3.69000000       2.13000000      10.32500000      -0.31072292       0.19199229      -0.22100357
C        2.46000000       0.00000000      10.32500000       0.00000054      -0.02096516       0.07142339
C        1.23000000       2.13000000      10.32500000       0.31072430       0.19199206      -0.22100360
C        1.23000000       0.71000000      10.32500000       0.30499635      -0.18869518      -0.21139772
C        0.00000000       2.84000000      10.32500000      -0.00000201       0.37345548      -0.21113563
C        3.69000000       0.71000000      10.32500000      -0.30499471      -0.18869540      -0.21139769
C        2.46000000       2.84000000      10.32500000       0.00000074       0.02098390       0.06865963
Li      -0.00000000       1.42000000      12.00000000      -0.00000009      -0.00003794      -3.39848385
17
Lattice="4.920000076 0.0 0.0 -2.46 4.260845053 0.0 0.0 0.0 24.0" Properties=species:S:1:pos:R:3:forces:R:3 energy=-150.1456886834858 stress="-0.07438547655919389 2.9299957761011614e-09 5.966836865130232e-10 2.9299957761011614e-09 -0.07442526489943714 5.525831889867635e-07 5.966836865130232e-10 5.525831889867635e-07 -0.011757287837174524" free_energy=-150.1456886834858 pbc="T T T"
C        0.00000000       0.00000000      13.68044407      -0.00000172      -0.26702823       0.60527394
C        3.69000000       2.13000000      13.68044260      -0.20973969       0.12508583       0.60586917
C        2.46000000       0.00000000      13.67834585       0.00000055      -0.02504577       0.21343155
C        1.23000000       2.13000000      13.68044260       0.20974135       0.12508716       0.60586902
C        0.00000000       1.42000000      13.79825828      -0.00000197      -0.00351441      -0.16301639
C       -1.23000000       3.55000000      13.67656444       0.09492484       0.07927200      -0.00130763
C        2.46000000       1.42000000      13.67657518       0.00000039      -0.11301379      -0.00123443
C        1.23000000       3.55000000      13.67656444      -0.09492374       0.07927325      -0.00130762
C        0.00000000       0.00000000      10.31784368      -0.00000224      -0.47983286      -0.26714636
C        3.69000000       2.13000000      10.31783701      -0.39689570       0.24156008      -0.26719250
C        2.46000000       0.00000000      10.32731492       0.00000053      -0.02112401      -0.01971878
C        1.23000000       2.13000000      10.31783701       0.39689709       0.24155987      -0.26719254
C        1.23000000       0.71000000      10.31814835       0.39241459      -0.23896900      -0.26835035
C        0.00000000       2.84000000      10.31815684      -0.00000200       0.47462164      -0.26822999
C        3.69000000       0.71000000      10.31814835      -0.39241293      -0.23896920      -0.26835031
C        2.46000000       2.84000000      10.32722534       0.00000074       0.02111782      -0.02695933
Li      -0.00000000       1.41999877      11.88985105      -0.00000009      -0.00008037      -0.21043745
17
Lattice="4.920000076 0.0 0.0 -2.46 4.260845053 0.0 0.0 0.0 24.0" Properties=species:S:1:pos:R:3:forces:R:3 energy=-150.20977469974767 stress="-0.07501975499481119 2.9332935688051995e-09 4.714423283530493e-10 2.9332935688051995e-09 -0.07505816097442296 2.531972583716467e-06 4.714423283530493e-10 2.531972583716467e-06 -0.01076116853576774" free_energy=-150.20977469974767 pbc="T T T"
C        0.00000000       0.00000000      13.72407870      -0.00000172      -0.31371812      -0.09151886
C        3.69000000       2.13000000      13.72411964      -0.25026912       0.14859154      -0.09073219
C        2.46000000       0.00000000      13.69383727       0.00000056      -0.02498278      -0.09828829
C        1.23000000       2.13000000      13.72411963       0.25027076       0.14859288      -0.09073215
C        0.00000000       1.42000000      13.79568820      -0.00000195      -0.00354155       0.37130519
C       -1.23000000       3.55000000      13.67658621       0.08229510       0.07185956       0.52884491
C        2.46000000       1.42000000      13.67660297       0.00000040      -0.09849868       0.52861575
C        1.23000000       3.55000000      13.67658621      -0.08229400       0.07186081       0.52884492
C        0.00000000       0.00000000      10.29823496      -0.00000223      -0.49038352      -0.19337331
C        3.69000000       2.13000000      10.29822451      -0.40604989       0.24679789      -0.19350612
C        2.46000000       0.00000000      10.32607685       0.00000053      -0.02111838      -0.22597935
C        1.23000000       2.13000000      10.29822451       0.40605126       0.24679768      -0.19350614
C        1.23000000       0.71000000      10.29847606       0.40318395      -0.24510873      -0.19386372
C        0.00000000       2.84000000      10.29849378      -0.00000199       0.48701696      -0.19370288
C        3.69000000       0.71000000      10.29847607      -0.40318231      -0.24510893      -0.19386372
C        2.46000000       2.84000000      10.32546350       0.00000074       0.02106291      -0.22269794
Li      -0.00000001       1.41999294      11.86671093      -0.00000008      -0.00011952       0.02415388
17
Lattice="4.920000076 0.0 0.0 -2.46 4.260845053 0.0 0.0 0.0 24.0" Properties=species:S:1:pos:R:3:forces:R:3 energy=-150.34724967168776 stress="-0.07567519364440524 3.0419945950493625e-09 2.1200919400671543e-10 3.0419945950493625e-09 -0.07571083902514912 -3.538032182739741e-06 2.1200919400671543e-10 -3.538032182739741e-06 -0.005775560482597241" free_energy=-150.34724967168776 pbc="T T T"
C        0.00000000       0.00000000      13.79719094      -0.00000172      -0.28019097       0.15060192
C        3.69000000       2.13000000      13.79747179      -0.22182935       0.13217740       0.14809104
C        2.46000000       0.00000000      13.70710557       0.00000056      -0.02485618       1.01243305
C        1.23000000       2.13000000      13.79747177       0.22183095       0.13217869       0.14809126
C        0.00000000       1.42000000      13.86194598      -0.00000189      -0.00366797      -0.22560026
C       -1.23000000       3.55000000      13.77861552       0.11410534       0.08984907      -0.18604494
C        2.46000000       1.42000000      13.77860061       0.00000038      -0.13513967      -0.18414494
C        1.23000000       3.55000000      13.77861552      -0.11410425       0.08985031      -0.18604506
C        0.00000000       0.00000000      10.22015771      -0.00000220      -0.46881176       0.00802855
C        3.69000000       2.13000000      10.22011377      -0.38751282       0.23592714       0.00823975
C        2.46000000       0.00000000      10.27992311       0.00000051      -0.02099269      -0.57242155
C        1.23000000       2.13000000      10.22011376       0.38751414       0.23592690       0.00823986
C        1.23000000       0.71000000      10.22017202       0.38856153      -0.23643621       0.00787052
C        0.00000000       2.84000000      10.22023993      -0.00000195       0.46983514       0.00767991
C        3.69000000       0.71000000      10.22017203      -0.38855993      -0.23643644       0.00787042
C        2.46000000       2.84000000      10.27885309       0.00000073       0.02089382      -0.55522861
Li      -0.00000004       1.41995776      11.82323687      -0.00000003      -0.00010659       0.40233909
17
Lattice="4.920000076 0.0 0.0 -2.46 4.260845053 0.0 0.0 0.0 24.0" Properties=species:S:1:pos:R:3:forces:R:3 energy=-150.51927547782557 stress="-0.07697665910204891 3.0096787671176027e-09 -7.54536574662582e-11 3.0096787671176027e-09 -0.0770112585971765 -1.7180118456535224e-07 -7.54536574662582e-11 -1.7180118456535224e-07 -0.0014104098335467627" free_energy=-150.51927547782557 pbc="T T T"
C        0.00000000       0.00000000      13.95736812      -0.00000171      -0.28360997      -0.48330751
C        3.69000000       2.13000000      13.95757665      -0.22490775       0.13399095      -0.48352199
C        2.46000000       0.00000000      13.93218581       0.00000055      -0.02449180      -0.14918739
C        1.23000000       2.13000000      13.95757664       0.22490933       0.13399224      -0.48352196
C        0.00000000       1.42000000      13.93506038      -0.00000184      -0.00333943       0.69890116
C       -1.23000000       3.55000000      13.92330867       0.06498293       0.06110132       0.36245911
C        2.46000000       1.42000000      13.92361540       0.00000035      -0.07846033       0.35961438
C        1.23000000       3.55000000      13.92330865      -0.06498185       0.06110252       0.36245931
C        0.00000000       0.00000000      10.08270162      -0.00000214      -0.34295796      -0.06530331
C        3.69000000       2.13000000      10.08264006      -0.27878884       0.17310819      -0.06434821
C        2.46000000       0.00000000      10.08382642       0.00000049      -0.02082895       0.08207269
C        1.23000000       2.13000000      10.08264005       0.27879011       0.17310795      -0.06434811
C        1.23000000       0.71000000      10.08228055       0.27831356      -0.17275624      -0.05822051
C        0.00000000       2.84000000      10.08239995      -0.00000190       0.34222509      -0.05940310
C        3.69000000       0.71000000      10.08228055      -0.27831200      -0.17275647      -0.05822053
C        2.46000000       2.84000000      10.08536406       0.00000070       0.02074826       0.07773740
Li      -0.00000010       1.41987390      11.82586644       0.00000000      -0.00017538       0.02613854
17
Lattice="4.920000076 0.0 0.0 -2.46 4.260845053 0.0 0.0 0.0 24.0" Properties=species:S:1:pos:R:3:forces:R:3 energy=-150.55269386701576 stress="-0.07736176408473369 3.004081571681288e-09 -3.561146703472791e-11 3.004081571681288e-09 -0.07739555299029219 -1.164480402487086e-06 -3.561146703472791e-11 -1.164480402487086e-06 -0.00018302799910305283" free_energy=-150.55269386701576 pbc="T T T"
C        0.00000000       0.00000000      13.98054524      -0.00000170      -0.28111686      -0.01141041
C        3.69000000       2.13000000      13.98072246      -0.22301312       0.13272088      -0.01191381
C        2.46000000       0.00000000      13.99028115       0.00000054      -0.02438657      -0.04657295
C        1.23000000       2.13000000      13.98072246       0.22301469       0.13272217      -0.01191388
C        0.00000000       1.42000000      13.98993106      -0.00000183      -0.00355536       0.11351424
C       -1.23000000       3.55000000      13.98273396       0.07271026       0.06563650      -0.00875327
C        2.46000000       1.42000000      13.98299695       0.00000035      -0.08741533      -0.01099208
C        1.23000000       3.55000000      13.98273394      -0.07270919       0.06563770      -0.00875313
C        0.00000000       0.00000000      10.03968881      -0.00000212      -0.32237859      -0.06798918
C        3.69000000       2.13000000      10.03966815      -0.26104013       0.16285085      -0.06763824
C        2.46000000       0.00000000      10.03090456       0.00000048      -0.02083076       0.19452812
C        1.23000000       2.13000000      10.03966815       0.26104140       0.16285062      -0.06763821
C        1.23000000       0.71000000      10.03948264       0.26078144      -0.16262456      -0.07085488
C        0.00000000       2.84000000      10.03956000      -0.00000188       0.32193916      -0.07149131
C        3.69000000       0.71000000      10.03948264      -0.26077990      -0.16262478      -0.07085487
C        2.46000000       2.84000000      10.03298969       0.00000070       0.02073402       0.17302307
Li      -0.00000011       1.41984113      11.82788816      -0.00000000      -0.00015909       0.04571081
17
Lattice="4.920000076 0.0 0.0 -2.46 4.260845053 0.0 0.0 0.0 24.0" Properties=species:S:1:pos:R:3:forces:R:3 energy=-150.55667061511872 stress="-0.07747288125005049 3.0064405587336947e-09 -3.0425235404540925e-11 3.0064405587336947e-09 -0.07750619291730715 -1.1196350023967972e-06 -3.0425235404540925e-11 -1.1196350023967972e-06 -4.378170737558214e-05" free_energy=-150.55667061511872 pbc="T T T"
C        0.00000000       0.00000000      13.97975246      -0.00000170      -0.27901739       0.02934564
C        3.69000000       2.13000000      13.97989470      -0.22119765       0.13168043       0.02872182
C        2.46000000       0.00000000      13.98704532       0.00000054      -0.02439202      -0.00376710
C        1.23000000       2.13000000      13.97989470       0.22119922       0.13168171       0.02872183
C        0.00000000       1.42000000      13.99781787      -0.00000183      -0.00357965      -0.00378282
C       -1.23000000       3.55000000      13.98212579       0.07323732       0.06594888      -0.02965440
C        2.46000000       1.42000000      13.98223324       0.00000035      -0.08804007      -0.03026133
C        1.23000000       3.55000000      13.98212579      -0.07323624       0.06595008      -0.02965438
C        0.00000000       0.00000000      10.03496502      -0.00000211      -0.31929229      -0.00695132
C        3.69000000       2.13000000      10.03496873      -0.25838258       0.16131103      -0.00718667
C        2.46000000       0.00000000      10.04442010       0.00000048      -0.02082426      -0.00685252
C        1.23000000       2.13000000      10.03496874       0.25838384       0.16131080      -0.00718667
C        1.23000000       0.71000000      10.03455974       0.25772647      -0.16084920       0.00258913
C        0.00000000       2.84000000      10.03459288      -0.00000187       0.31838401       0.00269552
C        3.69000000       0.71000000      10.03455974      -0.25772493      -0.16084942       0.00258913
C        2.46000000       2.84000000      10.04501109       0.00000070       0.02072531      -0.00455169
Li      -0.00000011       1.41983007      11.83106409      -0.00000000      -0.00014795       0.03518582
17
Lattice="4.920000076 0.0 0.0 -2.46 4.260845053 0.0 0.0 0.0 24.0" Properties=species:S:1:pos:R:3:forces:R:3 energy=-150.55684618612685 stress="-0.0774842016497535 3.0070056923074914e-09 -2.5578410633160198e-11 3.0070056923074914e-09 -0.07751751015498533 -9.075569425329623e-07 -2.5578410633160198e-11 -9.075569425329623e-07 -3.5963262188890764e-05" free_energy=-150.55684618612685 pbc="T T T"
C        0.00000000       0.00000000      13.98125769      -0.00000170      -0.27911216      -0.00627272
C        3.69000000       2.13000000      13.98136563      -0.22125575       0.13171618      -0.00661852
C        2.46000000       0.00000000      13.98670369       0.00000054      -0.02439716      -0.02475927
C        1.23000000       2.13000000      13.98136563       0.22125731       0.13171747      -0.00661851
C        0.00000000       1.42000000      13.99796998      -0.00000183      -0.00356641       0.02167457
C       -1.23000000       3.55000000      13.98054206       0.07349599       0.06610558       0.00517533
C        2.46000000       1.42000000      13.98061073       0.00000035      -0.08834344       0.00485879
C        1.23000000       3.55000000      13.98054206      -0.07349491       0.06610677       0.00517534
C        0.00000000       0.00000000      10.03439007      -0.00000211      -0.31838359       0.00239086
C        3.69000000       2.13000000      10.03438252      -0.25759826       0.16085810       0.00227448
C        2.46000000       0.00000000      10.04466135       0.00000048      -0.02082245      -0.00939798
C        1.23000000       2.13000000      10.03438252       0.25759952       0.16085787       0.00227448
C        1.23000000       0.71000000      10.03447676       0.25702714      -0.16043914      -0.00028599
C        0.00000000       2.84000000      10.03451352      -0.00000187       0.31756959      -0.00025607
C        3.69000000       0.71000000      10.03447676      -0.25702560      -0.16043936      -0.00028599
C        2.46000000       2.84000000      10.04530668       0.00000070       0.02071582      -0.01562232
Li      -0.00000011       1.41982182      11.83305236      -0.00000000      -0.00014366       0.02629352
17
Lattice="4.920000076 0.0 0.0 -2.46 4.260845053 0.0 0.0 0.0 24.0" Properties=species:S:1:pos:R:3:forces:R:3 energy=-150.55699957709498 stress="-0.07750130406669048 3.0059751257946237e-09 -6.524151571323537e-12 3.0059751257946237e-09 -0.077534630542464 -8.684515161733917e-07 -6.524151571323537e-12 -8.684515161733917e-07 -4.105856676081106e-06" free_energy=-150.55699957709498 pbc="T T T"
C        0.00000000       0.00000000      13.98175297      -0.00000170      -0.27855315      -0.00416345
C        3.69000000       2.13000000      13.98178399      -0.22073079       0.13140431      -0.00393203
C        2.46000000       0.00000000      13.98307529       0.00000054      -0.02440242       0.01153635
C        1.23000000       2.13000000      13.98178399       0.22073236       0.13140559      -0.00393203
C        0.00000000       1.42000000      14.00101573      -0.00000183      -0.00354807      -0.00626654
C       -1.23000000       3.55000000      13.97982965       0.07364526       0.06621799       0.00050452
C        2.46000000       1.42000000      13.97982136       0.00000035      -0.08852899       0.00081251
C        1.23000000       3.55000000      13.97982965      -0.07364419       0.06621918       0.00050451
C        0.00000000       0.00000000      10.03420020      -0.00000211      -0.31622119      -0.00104648
C        3.69000000       2.13000000      10.03416701      -0.25572698       0.15978076      -0.00085429
C        2.46000000       0.00000000      10.04361371       0.00000048      -0.02082451      -0.00090116
C        1.23000000       2.13000000      10.03416701       0.25572824       0.15978053      -0.00085429
C        1.23000000       0.71000000      10.03436462       0.25518706      -0.15936311      -0.00170345
C        0.00000000       2.84000000      10.03440861      -0.00000187       0.31543085      -0.00184391
C        3.69000000       0.71000000      10.03436461      -0.25518552      -0.15936333      -0.00170344
C        2.46000000       2.84000000      10.04347150       0.00000070       0.02069412       0.00184141
Li      -0.00000011       1.41979519      11.83835008      -0.00000000      -0.00012856       0.01200175
17
Lattice="4.920000076 0.0 0.0 -2.46 4.260845053 0.0 0.0 0.0 24.0" Properties=species:S:1:pos:R:3:forces:R:3 energy=-150.55702841736533 stress="-0.0775108641159155 3.003202222543989e-09 -1.0132340546640762e-11 3.003202222543989e-09 -0.07754403335592565 -8.821540808934466e-07 -1.0132340546640762e-11 -8.821540808934466e-07 -5.28192204898867e-06" free_energy=-150.55702841736533 pbc="T T T"
C        0.00000000       0.00000000      13.98121536      -0.00000170      -0.27838208      -0.00048768
C        3.69000000       2.13000000      13.98126590      -0.22059571       0.13133022      -0.00036209
C        2.46000000       0.00000000      13.98409147       0.00000054      -0.02440278      -0.00021206
C        1.23000000       2.13000000      13.98126590       0.22059728       0.13133150      -0.00036210
C        0.00000000       1.42000000      14.00068930      -0.00000183      -0.00354153      -0.00074835
C       -1.23000000       3.55000000      13.97975789       0.07421073       0.06652156       0.00098282
C        2.46000000       1.42000000      13.97978090       0.00000035      -0.08916497       0.00100215
C        1.23000000       3.55000000      13.97975789      -0.07420966       0.06652275       0.00098283
C        0.00000000       0.00000000      10.03399911      -0.00000211      -0.31510961      -0.00020867
C        3.69000000       2.13000000      10.03399014      -0.25475415       0.15922861      -0.00034527
C        2.46000000       0.00000000      10.04325500       0.00000048      -0.02084827      -0.00044878
C        1.23000000       2.13000000      10.03399014       0.25475541       0.15922839      -0.00034527
C        1.23000000       0.71000000      10.03407860       0.25420227      -0.15879039       0.00003009
C        0.00000000       2.84000000      10.03410247      -0.00000187       0.31428900       0.00019830
C        3.69000000       0.71000000      10.03407859      -0.25420073      -0.15879060       0.00003009
C        2.46000000       2.84000000      10.04337012       0.00000070       0.02069829       0.00055081
Li      -0.00000011       1.41976979      11.84131123      -0.00000000      -0.00012006      -0.00025681
