29
Lattice="6.508500099 0.0 0.0 -3.25425005 5.636526426 0.0 0.0 0.0 24.0" Properties=species:S:1:pos:R:3:forces:R:3 energy=-261.21940997472757 stress="-0.0703759545806142 3.9619666675664235e-06 -4.296729903015609e-08 3.9619666675664235e-06 -0.07037710968518317 -2.704820910771889e-09 -4.296729903015609e-08 -2.704820910771889e-09 -0.011811165482838254" free_energy=-261.21940997472757 pbc="T T T"
C        0.00000000       0.00000000      13.67500000      -0.07846276      -0.31801292       0.18686518
C       -0.46487000       2.41565000      13.67500000      -0.23955761       0.22751755       0.18690063
C       -0.92980000       4.83129000      13.67500000       0.04399886      -0.09043211       0.05325051
C        1.85958000       1.61041000      13.67500000       0.31549332       0.09413053       0.18689596
C        1.39467000       4.02611000      13.67500000       0.05755022       0.08284655       0.05325241
C        4.18405000       0.80523000      13.67500000      -0.10329185       0.00757159       0.05324849
C        3.71912000       3.22088000      13.67500000       0.00150007      -0.00007018       0.02126649
C       -2.32448000       4.56294000      13.67500000       0.07093661      -0.09238256       0.04018826
C        0.46490000       1.34206000      13.67500000      -0.00011578      -0.00194733       3.83126961
C       -0.00003000       3.75770000      13.67500000      -0.00076520       0.17462465       0.03309138
C        2.78935000       0.53682000      13.67500000       0.15347860      -0.08716551       0.03308510
C        2.32448000       2.95247000      13.67500000       0.04159132       0.10684734       0.04020081
C        1.85954000       5.36812000      13.67500000      -0.14905265      -0.08917510       0.03309028
C        4.64892000       2.14723000      13.67500000      -0.11329123      -0.01433129       0.04018817
C        0.00000000       0.00000000      10.32500000      -0.10774183      -0.29417679      -0.22184096
C       -0.46487000       2.41565000      10.32500000      -0.20100477       0.24051423      -0.22188721
C       -0.92980000       4.83129000      10.32500000       0.10912199      -0.14654819      -0.00493553
C        1.85958000       1.61041000      10.32500000       0.30852199       0.05406438      -0.22186910
C        1.39467000       4.02611000      10.32500000       0.07366285       0.16563855      -0.00493437
C        4.18405000       0.80523000      10.32500000      -0.18148280      -0.02114929      -0.00493427
C        3.71912000       3.22088000      10.32500000       0.00144372      -0.00095425      -0.04794696
C       -1.39467000       3.48929000      10.32500000      -0.10894879       0.14649762      -0.00428182
C        1.39471000       0.26841000      10.32500000       0.19311462      -0.23629804      -0.20922771
C        0.92977000       2.68406000      10.32500000       0.10818288       0.28618042      -0.20924728
C        0.46490000       5.09970000      10.32500000      -0.00062673       0.00112117      -0.04671194
C        3.25428000       1.87882000      10.32500000       0.18092129       0.02068931      -0.00428487
C        2.78935000       4.29447000      10.32500000      -0.07381262      -0.16597555      -0.00429120
C        5.57873000       1.07359000      10.32500000      -0.30136246      -0.04958378      -0.20924151
Li       0.46490000       1.34206000      12.00000000      -0.00000124      -0.00004100      -3.37715855
29
Lattice="6.508500099 0.0 0.0 -3.25425005 5.636526426 0.0 0.0 0.0 24.0" Properties=species:S:1:pos:R:3:forces:R:3 energy=-261.6188604317653 stress="-0.07042308484757198 3.802794722672295e-06 -9.468391925158075e-09 3.802794722672295e-06 -0.07042436064276718 3.0770775796899924e-07 -9.468391925158075e-09 3.0770775796899924e-07 -0.0076411122709811475" free_energy=-261.6188604317653 pbc="T T T"
C        0.00000000       0.00000000      13.68098857      -0.05408725      -0.23141684       0.73174225
C       -0.46487000       2.41565000      13.68098971      -0.17653504       0.16298511       0.73159713
C       -0.92980000       4.83129000      13.67670655       0.02900884      -0.07930672       0.03212402
C        1.85958000       1.61041000      13.68098956       0.22820765       0.07180388       0.73165043
C        1.39467000       4.02611000      13.67670661       0.05541576       0.06430247       0.03213208
C        4.18405000       0.80523000      13.67670648      -0.08615453       0.01498601       0.03212289
C        3.71912000       3.22088000      13.67568154       0.00149504      -0.00006790      -0.12742240
C       -2.32448000       4.56294000      13.67628794       0.06080916      -0.09677562       0.01687262
C        0.46490000       1.34206000      13.79778278      -0.00015499      -0.00179603      -0.15800579
C       -0.00003000       3.75770000      13.67606050       0.00113147       0.16771209       0.01306580
C        2.78935000       0.53682000      13.67606030       0.14651815      -0.08532036       0.01306253
C        2.32448000       2.95247000      13.67628834       0.05047400       0.10032845       0.01689529
C        1.85954000       5.36812000      13.67606046      -0.14402429      -0.08405675       0.01306917
C        4.64892000       2.14723000      13.67628793      -0.11209310      -0.00337722       0.01688434
C        0.00000000       0.00000000      10.31789054      -0.13235817      -0.36376833      -0.27773363
C       -0.46487000       2.41565000      10.31788906      -0.24897635       0.29663322      -0.27778942
C       -0.92980000       4.83129000      10.32484183       0.11152952      -0.15851863      -0.02846883
C        1.85958000       1.61041000      10.31788964       0.38110700       0.06753853      -0.27776506
C        1.39467000       4.02611000      10.32484187       0.08284449       0.17369816      -0.02847534
C        4.18405000       0.80523000      10.32484187      -0.19305504      -0.01724862      -0.02847084
C        3.71912000       3.22088000      10.32346342       0.00145498      -0.00096178      -0.02825650
C       -1.39467000       3.48929000      10.32486278      -0.11114202       0.15955782      -0.03060114
C        1.39471000       0.26841000      10.31829477       0.24093374      -0.29195506      -0.27943425
C        0.92977000       2.68406000      10.31829414       0.13248190       0.35544000      -0.27948353
C        0.46490000       5.09970000      10.32350300      -0.00063392       0.00113220      -0.02788534
C        3.25428000       1.87882000      10.32486268       0.19332350       0.01605623      -0.03060149
C        2.78935000       4.29447000      10.32486248      -0.08404154      -0.17439807      -0.03060097
C        5.57873000       1.07359000      10.31829432      -0.37348128      -0.06316444      -0.27945948
Li       0.46489996       1.34205869      11.89177036       0.00000232      -0.00004181      -0.19076456
29
Lattice="6.508500099 0.0 0.0 -3.25425005 5.636526426 0.0 0.0 0.0 24.0" Properties=species:S:1:pos:R:3:forces:R:3 energy=-261.7098632093234 stress="-0.07079336250442692 3.7749886067353735e-06 1.4134348528862852e-07 3.7749886067353735e-06 -0.07079459095567436 1.0860537976526835e-07 1.4134348528862852e-07 1.0860537976526835e-07 -0.006947561693144825" free_energy=-261.7098632093234 pbc="T T T"
C        0.00000000       0.00000000      13.73393208      -0.07507208      -0.28817376      -0.02915317
C       -0.46487000       2.41565000      13.73392298      -0.21517745       0.20953667      -0.02915044
C       -0.92980000       4.83129000      13.67919382       0.03680085      -0.09037014      -0.04646272
C        1.85958000       1.61041000      13.73392662       0.28785205       0.08198026      -0.02912037
C        1.39467000       4.02611000      13.67919446       0.06110294       0.07657206      -0.04644326
C        4.18405000       0.80523000      13.67919367      -0.09962392       0.01377192      -0.04645272
C        3.71912000       3.22088000      13.66665690       0.00150961      -0.00007587      -0.06183028
C       -2.32448000       4.56294000      13.67763855       0.04633449      -0.07397060       0.24740787
C        0.46490000       1.34206000      13.80036085      -0.00015793      -0.00178544       0.53576489
C       -0.00003000       3.75770000      13.67711352      -0.00359659       0.13816183       0.24990617
C        2.78935000       0.53682000      13.67711306       0.12329043      -0.06643808       0.24990826
C        2.32448000       2.95247000      13.67764062       0.03795398       0.07640778       0.24743013
C        1.85954000       5.36812000      13.67711372      -0.11607529      -0.07336957       0.24999180
C        4.64892000       2.14723000      13.67763939      -0.08512771      -0.00224264       0.24741012
C        0.00000000       0.00000000      10.29724965      -0.13752540      -0.37648732      -0.22376498
C       -0.46487000       2.41565000      10.29724402      -0.25740533       0.30746371      -0.22378344
C       -0.92980000       4.83129000      10.32279048       0.11098629      -0.15713694      -0.08308952
C        1.85958000       1.61041000      10.29724640       0.39470350       0.06942257      -0.22377107
C        1.39467000       4.02611000      10.32279006       0.08192108       0.17253446      -0.08312306
C        4.18405000       0.80523000      10.32279038      -0.19158615      -0.01746890      -0.08309848
C        3.71912000       3.22088000      10.32127159       0.00145628      -0.00096202      -0.00483731
C       -1.39467000       3.48929000      10.32266149      -0.10875282       0.15767931      -0.08260458
C        1.39471000       0.26841000      10.29757805       0.24987454      -0.30255594      -0.22785848
C        0.92977000       2.68406000      10.29757383       0.13719100       0.36848012      -0.22787414
C        0.46490000       5.09970000      10.32134215      -0.00063458       0.00113284      -0.00344551
C        3.25428000       1.87882000      10.32266135       0.19050245       0.01492749      -0.08259981
C        2.78935000       4.29447000      10.32266117      -0.08361157      -0.17139341      -0.08258320
C        5.57873000       1.07359000      10.29757575      -0.38713196      -0.06560343      -0.22786805
Li       0.46490012       1.34205555      11.86592342      -0.00000071      -0.00003697       0.12109535
29
Lattice="6.508500099 0.0 0.0 -3.25425005 5.636526426 0.0 0.0 0.0 24.0" Properties=species:S:1:pos:R:3:forces:R:3 energy=-261.76660128759585 stress="-0.07069905844164359 3.745376911267762e-06 1.3650180484607153e-07 3.745376911267762e-06 -0.07070030811943682 1.441951127376676e-07 1.3650180484607153e-07 1.441951127376676e-07 -0.005904133807004761" free_energy=-261.76660128759585 pbc="T T T"
C        0.00000000       0.00000000      13.75111914      -0.06754127      -0.26871012       0.11804470
C       -0.46487000       2.41565000      13.75110651      -0.20206345       0.19326642       0.11803804
C       -0.92980000       4.83129000      13.67678033       0.03561756      -0.09353815       0.23747325
C        1.85958000       1.61041000      13.75111368       0.26722137       0.07876029       0.11803228
C        1.39467000       4.02611000      13.67678257       0.06444325       0.07713462       0.23753663
C        4.18405000       0.80523000      13.67678085      -0.10177932       0.01637536       0.23750570
C        3.71912000       3.22088000      13.65895582       0.00151128      -0.00007503       0.26088164
C       -2.32448000       4.56294000      13.69580211       0.04407507      -0.07897797       0.00373719
C        0.46490000       1.34206000      13.83956808      -0.00016571      -0.00176424       0.05699168
C       -0.00003000       3.75770000      13.69534722       0.00240588       0.13777121       0.01165378
C        2.78935000       0.53682000      13.69534681       0.11994847      -0.07143798       0.01165468
C        2.32448000       2.95247000      13.69580638       0.04341572       0.07695735       0.00375089
C        1.85954000       5.36812000      13.69535362      -0.11873925      -0.06797236       0.01169823
C        4.64892000       2.14723000      13.69580341      -0.08833573       0.00221594       0.00372451
C        0.00000000       0.00000000      10.27375394      -0.13345824      -0.36521463      -0.15023401
C       -0.46487000       2.41565000      10.27374547      -0.24967347       0.29830046      -0.15022827
C       -0.92980000       4.83129000      10.31610890       0.10537727      -0.15127176      -0.10290881
C        1.85958000       1.61041000      10.27374940       0.38290363       0.06730956      -0.15022595
C        1.39467000       4.02611000      10.31610592       0.07965005       0.16474254      -0.10293092
C        4.18405000       0.80523000      10.31610811      -0.18370179      -0.01554392      -0.10291233
C        3.71912000       3.22088000      10.32012833       0.00145978      -0.00096338      -0.05647246
C       -1.39467000       3.48929000      10.31595997      -0.10335820       0.15202669      -0.10396520
C        1.39471000       0.26841000      10.27376234       0.24263190      -0.29345162      -0.15032295
C        0.92977000       2.68406000      10.27375570       0.13292489       0.35764706      -0.15031921
C        0.46490000       5.09970000      10.32030958      -0.00063524       0.00113501      -0.05886040
C        3.25428000       1.87882000      10.31596017       0.18291033       0.01308276      -0.10396325
C        2.78935000       4.29447000      10.31596117      -0.08141823      -0.16389823      -0.10396614
C        5.57873000       1.07359000      10.27375869      -0.37562401      -0.06387937      -0.15032411
Li       0.46490013       1.34205177      11.86516578      -0.00000256      -0.00002651       0.20691084
29
Lattice="6.508500099 0.0 0.0 -3.25425005 5.636526426 0.0 0.0 0.0 24.0" Properties=species:S:1:pos:R:3:forces:R:3 energy=-261.8272791712491 stress="-0.07071034794418465 3.7008944938897114e-06 1.8084642836761817e-07 3.7008944938897114e-06 -0.07071157411717362 9.669020776356877e-08 1.8084642836761817e-07 9.669020776356877e-08 -0.0043783301876065385" free_energy=-261.8272791712491 pbc="T T T"
C        0.00000000       0.00000000      13.78548536      -0.06832863      -0.27495053      -0.09810280
C       -0.46487000       2.41565000      13.78546901      -0.20705625       0.19708051      -0.09815614
C       -0.92980000       4.83129000      13.72027446       0.03388505      -0.09594896      -0.19951216
C        1.85958000       1.61041000      13.78547753       0.27301856       0.08117296      -0.09814602
C        1.39467000       4.02611000      13.72028987       0.06739058       0.07683927      -0.19953615
C        4.18405000       0.80523000      13.72028163      -0.10300464       0.01908260      -0.19948912
C        3.71912000       3.22088000      13.70323681       0.00151156      -0.00007148      -0.22663684
C       -2.32448000       4.56294000      13.70910406       0.03234447      -0.04200528       0.38953491
C        0.46490000       1.34206000      13.87758665      -0.00016714      -0.00175325       0.03988159
C       -0.00003000       3.75770000      13.71020351      -0.00136859       0.10830908       0.38333798
C        2.78935000       0.53682000      13.71020332       0.09632832      -0.05343229       0.38333108
C        2.32448000       2.95247000      13.70911245       0.01726436       0.04831829       0.38957450
C        1.85954000       5.36812000      13.71022267      -0.09134688      -0.05651258       0.38327912
C        4.64892000       2.14723000      13.70910328      -0.05045698      -0.00611921       0.38956767
C        0.00000000       0.00000000      10.22889214      -0.11716112      -0.32428857      -0.01183568
C       -0.46487000       2.41565000      10.22888280      -0.22237397       0.26371716      -0.01180519
C       -0.92980000       4.83129000      10.29190402       0.09449775      -0.13635830      -0.09738319
C        1.85958000       1.61041000      10.22888824       0.33930421       0.06096516      -0.01181848
C        1.39467000       4.02611000      10.29189505       0.07217956       0.14786903      -0.09734973
C        4.18405000       0.80523000      10.29190208      -0.16534591      -0.01357971      -0.09737251
C        3.71912000       3.22088000      10.30859480       0.00146492      -0.00096513      -0.19940514
C       -1.39467000       3.48929000      10.29154034      -0.09453049       0.13805969      -0.09234840
C        1.39471000       0.26841000      10.22866180       0.21594038      -0.25909817      -0.00773539
C        0.92977000       2.68406000      10.22865419       0.11651085       0.31733136      -0.00772514
C        0.46490000       5.09970000      10.30839859      -0.00063364       0.00113527      -0.19067841
C        3.25428000       1.87882000      10.29154113       0.16640112       0.01242408      -0.09235571
C        2.78935000       4.29447000      10.29154242      -0.07374055      -0.14927613      -0.09239846
C        5.57873000       1.07359000      10.22865699      -0.33252191      -0.05793230      -0.00773016
Li       0.46489965       1.34204411      11.90399483      -0.00000499      -0.00001257      -0.22098602
29
Lattice="6.508500099 0.0 0.0 -3.25425005 5.636526426 0.0 0.0 0.0 24.0" Properties=species:S:1:pos:R:3:forces:R:3 energy=-261.88908295042006 stress="-0.07102764512793036 3.660234167936287e-06 1.2913669590874626e-07 3.660234167936287e-06 -0.07102887492359691 1.4060484456290943e-07 1.2913669590874626e-07 1.4060484456290943e-07 -0.002843751774187861" free_energy=-261.88908295042006 pbc="T T T"
C        0.00000000       0.00000000      13.81362013      -0.05596631      -0.24237531       0.09214259
C       -0.46487000       2.41565000      13.81359617      -0.18499907       0.17006205       0.09213332
C       -0.92980000       4.83129000      13.75049971       0.03196035      -0.09264597      -0.03428484
C        1.85958000       1.61041000      13.81360679       0.23860125       0.07557838       0.09213854
C        1.39467000       4.02611000      13.75052687       0.06549368       0.07352726      -0.03435114
C        4.18405000       0.80523000      13.75051533      -0.09917742       0.01908898      -0.03431136
C        3.71912000       3.22088000      13.73232921       0.00150337      -0.00006614      -0.05920822
C       -2.32448000       4.56294000      13.75053026       0.03864106      -0.05737632       0.18492965
C        0.46490000       1.34206000      13.91931226      -0.00016646      -0.00171743      -0.25554850
C       -0.00003000       3.75770000      13.75277651       0.00434263       0.12443243       0.17446599
C        2.78935000       0.53682000      13.75277604       0.10743418      -0.06644625       0.17446071
C        2.32448000       2.95247000      13.75054570       0.02743511       0.06145531       0.18491826
C        1.85954000       5.36812000      13.75280451      -0.10817261      -0.05961974       0.17439482
C        4.64892000       2.14723000      13.75052968      -0.06691528      -0.00388730       0.18494997
C        0.00000000       0.00000000      10.18217206      -0.10832048      -0.30379601       0.08724166
C       -0.46487000       2.41565000      10.18216401      -0.20904823       0.24581524       0.08728214
C       -0.92980000       4.83129000      10.26019670       0.08369305      -0.12049124      -0.09704487
C        1.85958000       1.61041000      10.18217005       0.31713550       0.05838012       0.08726211
C        1.39467000       4.02611000      10.26018400       0.06384762       0.13058043      -0.09699399
C        4.18405000       0.80523000      10.26019435      -0.14619982      -0.01215744      -0.09703125
C        3.71912000       3.22088000      10.28255765       0.00147036      -0.00096720      -0.23780482
C       -1.39467000       3.48929000      10.25997306      -0.08204964       0.12096150      -0.09766245
C        1.39471000       0.26841000      10.18199048       0.20226380      -0.24084910       0.09117093
C        0.92977000       2.68406000      10.18198260       0.10753872       0.29634713       0.09118879
C        0.46490000       5.09970000      10.28259881      -0.00063413       0.00113783      -0.23633752
C        3.25428000       1.87882000      10.25997394       0.14535352       0.01016569      -0.09766945
C        2.78935000       4.29447000      10.25997245      -0.06518077      -0.12992426      -0.09771214
C        5.57873000       1.07359000      10.18198485      -0.30987716      -0.05520511       0.09118359
Li       0.46489880       1.34203537      11.92791582      -0.00000681      -0.00000753      -0.41390252
29
Lattice="6.508500099 0.0 0.0 -3.25425005 5.636526426 0.0 0.0 0.0 24.0" Properties=species:S:1:pos:R:3:forces:R:3 energy=-261.9208785652012 stress="-0.07142394405428586 3.6553908836134114e-06 1.1539813333779508e-07 3.6553908836134114e-06 -0.071425145127784 1.0562736103738303e-07 1.1539813333779508e-07 1.0562736103738303e-07 -0.0028437392157932982" free_energy=-261.9208785652012 pbc="T T T"
C        0.00000000       0.00000000      13.82091912      -0.06295626      -0.25867495       0.02083139
C       -0.46487000       2.41565000      13.82089431      -0.19562091       0.18426431       0.02088916
C       -0.92980000       4.83129000      13.74882147       0.03397488      -0.09027576       0.18248706
C        1.85958000       1.61041000      13.82090535       0.25621464       0.07767441       0.02087368
C        1.39467000       4.02611000      13.74884420       0.06243712       0.07408752       0.18245626
C        4.18405000       0.80523000      13.74883541      -0.09812206       0.01615331       0.18245790
C        3.71912000       3.22088000      13.72884184       0.00150214      -0.00006980       0.22075590
C       -2.32448000       4.56294000      13.76479580       0.04042890      -0.07323591      -0.00308235
C        0.46490000       1.34206000      13.90212270      -0.00016098      -0.00172097       0.00693008
C       -0.00003000       3.75770000      13.76632389       0.00247231       0.13274780      -0.00451917
C        2.78935000       0.53682000      13.76632303       0.11556074      -0.06898683      -0.00451400
C        2.32448000       2.95247000      13.76481061       0.04027829       0.07092959      -0.00311729
C        1.85954000       5.36812000      13.76634703      -0.11444571      -0.06538608      -0.00453237
C        4.64892000       2.14723000      13.76479667      -0.08154743       0.00249954      -0.00309227
C        0.00000000       0.00000000      10.18721235      -0.11119732      -0.30471918       0.04157226
C       -0.46487000       2.41565000      10.18720722      -0.20840511       0.24876578       0.04160342
C       -0.92980000       4.83129000      10.25245646       0.09372155      -0.13321745      -0.10399805
C        1.85958000       1.61041000      10.18721184       0.31937276       0.05634783       0.04158971
C        1.39467000       4.02611000      10.25244730       0.06985194       0.14562708      -0.10398996
C        4.18405000       0.80523000      10.25245507      -0.16223541      -0.01447871      -0.10399569
C        3.71912000       3.22088000      10.26490770       0.00146263      -0.00096276      -0.11559336
C       -1.39467000       3.48929000      10.25219228      -0.09144586       0.13338666      -0.10516053
C        1.39471000       0.26841000      10.18731267       0.20208410      -0.24459178       0.03902915
C        0.92977000       2.68406000      10.18730606       0.11087247       0.29806647       0.03905869
C        0.46490000       5.09970000      10.26505972      -0.00063621       0.00113697      -0.11484452
C        3.25428000       1.87882000      10.25219266       0.16081121       0.01209053      -0.10515926
C        2.78935000       4.29447000      10.25218805      -0.07123702      -0.14427385      -0.10515387
C        5.57873000       1.07359000      10.18730792      -0.31302821      -0.05317699       0.03904462
Li       0.46489829       1.34203461      11.89896129      -0.00000718      -0.00000676      -0.19882657
29
Lattice="6.508500099 0.0 0.0 -3.25425005 5.636526426 0.0 0.0 0.0 24.0" Properties=species:S:1:pos:R:3:forces:R:3 energy=-261.936921508948 stress="-0.07166435282193954 3.646117923982894e-06 1.1981587550003276e-07 3.646117923982894e-06 -0.07166554291588276 9.809170034330981e-08 1.1981587550003276e-07 9.809170034330981e-08 -0.0027604144661031965" free_energy=-261.936921508948 pbc="T T T"
C        0.00000000       0.00000000      13.82352208      -0.06332637      -0.25581829      -0.03589052
C       -0.46487000       2.41565000      13.82350126      -0.19295513       0.18315846      -0.03587493
C       -0.92980000       4.83129000      13.76159989       0.03351261      -0.08765887       0.02686936
C        1.85958000       1.61041000      13.82351127       0.25392756       0.07591998      -0.03588403
C        1.39467000       4.02611000      13.76161974       0.06039717       0.07237657       0.02683902
C        4.18405000       0.80523000      13.76161149      -0.09562523       0.01524819       0.02685904
C        3.71912000       3.22088000      13.74407738       0.00150447      -0.00006900       0.04175312
C       -2.32448000       4.56294000      13.76675486       0.03992118      -0.06905200       0.11793386
C        0.46490000       1.34206000      13.89999181      -0.00016073      -0.00172156      -0.01849960
C       -0.00003000       3.75770000      13.76807061      -0.00068717       0.13025124       0.11760047
C        2.78935000       0.53682000      13.76807007       0.11498172      -0.06499509       0.11760474
C        2.32448000       2.95247000      13.76676707       0.03690668       0.06839820       0.11792372
C        1.85954000       5.36812000      13.76809206      -0.11070671      -0.06687895       0.11756428
C        4.64892000       2.14723000      13.76675524      -0.07767460       0.00084403       0.11793531
C        0.00000000       0.00000000      10.19095176      -0.11173426      -0.30487635      -0.00544402
C       -0.46487000       2.41565000      10.19094930      -0.20826898       0.24930703      -0.00543490
C       -0.92980000       4.83129000      10.24384561       0.10231732      -0.14212091      -0.07577789
C        1.85958000       1.61041000      10.19095273       0.31977514       0.05595875      -0.00544065
C        1.39467000       4.02611000      10.24383757       0.07326291       0.15752528      -0.07576262
C        4.18405000       0.80523000      10.24384454      -0.17424534      -0.01747127      -0.07577456
C        3.71912000       3.22088000      10.25395479       0.00145792      -0.00096024      -0.09706466
C       -1.39467000       3.48929000      10.24349220      -0.10019786       0.14235730      -0.07662244
C        1.39471000       0.26841000      10.19091349       0.20178257      -0.24536238      -0.00425495
C        0.92977000       2.68406000      10.19090919       0.11169199       0.29819222      -0.00424172
C        0.46490000       5.09970000      10.25417723      -0.00063625       0.00113541      -0.09777343
C        3.25428000       1.87882000      10.24349260       0.17295491       0.01518406      -0.07662333
C        2.78935000       4.29447000      10.24348790      -0.07462488      -0.15633518      -0.07662149
C        5.57873000       1.07359000      10.19090998      -0.31354471      -0.05252977      -0.00424901
Li       0.46489770       1.34203401      11.88033624      -0.00000594      -0.00000688      -0.02164818
29
Lattice="6.508500099 0.0 0.0 -3.25425005 5.636526426 0.0 0.0 0.0 24.0" Properties=species:S:1:pos:R:3:forces:R:3 energy=-261.9511321609838 stress="-0.07198992847455696 3.64636507446527e-06 4.637806068832198e-08 3.64636507446527e-06 -0.07199111567154148 1.3411417408970955e-07 4.637806068832198e-08 1.3411417408970955e-07 -0.002650326643257036" free_energy=-261.9511321609838 pbc="T T T"
C        0.00000000       0.00000000      13.81859505      -0.05759031      -0.23645563       0.18989787
C       -0.46487000       2.41565000      13.81857860      -0.17905792       0.16850158       0.18991063
C       -0.92980000       4.83129000      13.77167321       0.03271759      -0.08208642       0.19707837
C        1.85958000       1.61041000      13.81858662       0.23428650       0.07121998       0.18990860
C        1.39467000       4.02611000      13.77168669       0.05596705       0.06890604       0.19706961
C        4.18405000       0.80523000      13.77168205      -0.09039515       0.01314477       0.19705859
C        3.71912000       3.22088000      13.75772715       0.00149858      -0.00006660       0.19615589
C       -2.32448000       4.56294000      13.78750215       0.05100890      -0.09061797      -0.09722538
C        0.46490000       1.34206000      13.89594671      -0.00015605      -0.00171561      -0.14941187
C       -0.00003000       3.75770000      13.78866959       0.00142286       0.15233896      -0.09666119
C        2.78935000       0.53682000      13.78866990       0.13305154      -0.07787231      -0.09666104
C        2.32448000       2.95247000      13.78751152       0.05004235       0.08876838      -0.09724900
C        1.85954000       5.36812000      13.78868421      -0.13089575      -0.07609106      -0.09666189
C        4.64892000       2.14723000      13.78750256      -0.10188568       0.00202771      -0.09723625
C        0.00000000       0.00000000      10.19165439      -0.11024851      -0.29888535      -0.05300408
C       -0.46487000       2.41565000      10.19165464      -0.20381924       0.24502234      -0.05301225
C       -0.92980000       4.83129000      10.22732717       0.10985533      -0.15015604      -0.04483690
C        1.85958000       1.61041000      10.19165658       0.31384058       0.05424733      -0.05300886
C        1.39467000       4.02611000      10.22732219       0.07645089       0.16807147      -0.04482752