29
Lattice="6.508500099 0.0 0.0 -3.25425005 5.636526426 0.0 0.0 0.0 24.0" Properties=species:S:1:pos:R:3:forces:R:3 energy=-262.1014004975041 stress="-0.07273401903284704 3.7250937068325135e-06 2.110497028409323e-17 3.7250937068325135e-06 -0.07273493310106567 -1.6925938966603023e-17 2.110497028409323e-17 -1.6925938966603023e-17 -0.0002714631481288586" free_energy=-262.1014004975041 pbc="T T T"
C        0.00000000       0.00000000      13.87500000      -0.06854989      -0.15033684      -0.02592937
C       -0.46487000       2.41565000      13.87500000      -0.20621721      -0.03209991       0.03149322
C       -0.92980000       4.83129000      13.87500000      -0.09725344       0.13596294      -0.02592835
C        1.85958000       1.61041000      13.87500000       0.13081703      -0.15940625       0.03150117
C        1.39467000       4.02611000      13.87500000       0.07369871       0.19240111       0.03149326
C        4.18405000       0.80523000      13.87500000      -0.00150483      -0.00053332       0.01516795
C        3.71912000       3.22088000      13.87500000       0.16647597       0.01713353      -0.02593145
C       -2.32448000       4.56294000      13.87500000      -0.00007573      -0.00158685       0.01516605
C        0.46490000       1.34206000      13.87500000      -0.07415314      -0.19530230       0.03150697
C       -0.00003000       3.75770000      13.87500000      -0.12947992       0.16014403       0.03148823
C        2.78935000       0.53682000      13.87500000       0.09795225      -0.13536086      -0.02593442
C        2.32448000       2.95247000      13.87500000       0.20317147       0.03268638       0.03150164
C        1.85954000       5.36812000      13.87500000       0.06940729       0.15175484      -0.02592858
C        4.64892000       2.14723000      13.87500000      -0.16427715      -0.01547707      -0.02593052
C        0.00000000       0.00000000      10.12500000      -0.06854989      -0.15033684       0.02592937
C       -0.46487000       2.41565000      10.12500000      -0.20621721      -0.03209991      -0.03149322
C       -0.92980000       4.83129000      10.12500000      -0.09725344       0.13596294       0.02592835
C        1.85958000       1.61041000      10.12500000       0.13081703      -0.15940625      -0.03150117
C        1.39467000       4.02611000      10.12500000       0.07369871       0.19240111      -0.03149326
C        4.18405000       0.80523000      10.12500000      -0.00150483      -0.00053332      -0.01516795
C        3.71912000       3.22088000      10.12500000       0.16647597       0.01713353       0.02593145
C       -2.32448000       4.56294000      10.12500000      -0.00007573      -0.00158685      -0.01516605
C        0.46490000       1.34206000      10.12500000      -0.07415314      -0.19530230      -0.03150697
C       -0.00003000       3.75770000      10.12500000      -0.12947992       0.16014403      -0.03148823
C        2.78935000       0.53682000      10.12500000       0.09795225      -0.13536086       0.02593442
C        2.32448000       2.95247000      10.12500000       0.20317147       0.03268638      -0.03150164
C        1.85954000       5.36812000      10.12500000       0.06940729       0.15175484       0.02592858
C        4.64892000       2.14723000      10.12500000      -0.16427715      -0.01547707       0.02593052
Li       0.92980000       2.68406000      12.00000000      -0.00002282       0.00004109       0.00000000
29
Lattice="6.508500099 0.0 0.0 -3.25425005 5.636526426 0.0 0.0 0.0 24.0" Properties=species:S:1:pos:R:3:forces:R:3 energy=-262.102327646096 stress="-0.07276198214937307 3.7257745971609325e-06 -8.173740318828367e-18 3.7257745971609325e-06 -0.07276289589062387 -9.814047602527566e-19 -8.173740318828367e-18 -9.814047602527566e-19 -0.0002359641274407879" free_energy=-262.102327646096 pbc="T T T"
C        0.00000000       0.00000000      13.87314790      -0.06781731      -0.15061790       0.00052804
C       -0.46487000       2.41565000      13.87724952      -0.20551677      -0.03203642       0.01861765
C       -0.92980000       4.83129000      13.87314797      -0.09786409       0.13546967       0.00051503
C        1.85958000       1.61041000      13.87725008       0.13040971      -0.15883263       0.01862396
C        1.39467000       4.02611000      13.87724952       0.07340557       0.19176357       0.01861977
C        4.18405000       0.80523000      13.87608343      -0.00150400      -0.00053322      -0.02977366
C        3.71912000       3.22088000      13.87314775       0.16635291       0.01790850       0.00052314
C       -2.32448000       4.56294000      13.87608329      -0.00007509      -0.00158676      -0.02977334
C        0.46490000       1.34206000      13.87725050      -0.07385900      -0.19466205       0.01861783
C       -0.00003000       3.75770000      13.87724916      -0.12907515       0.15957103       0.01861912
C        2.78935000       0.53682000      13.87314754       0.09856166      -0.13486692       0.00052430
C        2.32448000       2.95247000      13.87725012       0.20247186       0.03262128       0.01862020
C        1.85954000       5.36812000      13.87314796       0.06867458       0.15203671       0.00051996
C        4.64892000       2.14723000      13.87314782      -0.16415510      -0.01625247       0.00052257
C        0.00000000       0.00000000      10.12685210      -0.06781731      -0.15061790      -0.00052804
C       -0.46487000       2.41565000      10.12275048      -0.20551677      -0.03203642      -0.01861765
C       -0.92980000       4.83129000      10.12685203      -0.09786409       0.13546967      -0.00051503
C        1.85958000       1.61041000      10.12274992       0.13040971      -0.15883263      -0.01862396
C        1.39467000       4.02611000      10.12275048       0.07340557       0.19176357      -0.01861977
C        4.18405000       0.80523000      10.12391657      -0.00150400      -0.00053322       0.02977366
C        3.71912000       3.22088000      10.12685225       0.16635291       0.01790850      -0.00052314
C       -2.32448000       4.56294000      10.12391671      -0.00007509      -0.00158676       0.02977334
C        0.46490000       1.34206000      10.12274950      -0.07385900      -0.19466205      -0.01861783
C       -0.00003000       3.75770000      10.12275084      -0.12907515       0.15957103      -0.01861912
C        2.78935000       0.53682000      10.12685246       0.09856166      -0.13486692      -0.00052430
C        2.32448000       2.95247000      10.12274988       0.20247186       0.03262128      -0.01862020
C        1.85954000       5.36812000      10.12685204       0.06867458       0.15203671      -0.00051996
C        4.64892000       2.14723000      10.12685218      -0.16415510      -0.01625247      -0.00052257
Li       0.92979837       2.68406293      12.00000000      -0.00001958       0.00003523       0.00000000
29
Lattice="6.508500099 0.0 0.0 -3.25425005 5.636526426 0.0 0.0 0.0 24.0" Properties=species:S:1:pos:R:3:forces:R:3 energy=-262.10301018930517 stress="-0.07279434147357393 3.725215815799403e-06 1.3823364643446699e-17 3.725215815799403e-06 -0.07279525656844141 -1.2576277488786798e-17 1.3823364643446699e-17 -1.2576277488786798e-17 -0.00018095622725798152" free_energy=-262.10301018930517 pbc="T T T"
C        0.00000000       0.00000000      13.87269827      -0.06789822      -0.15003289      -0.00765646
C       -0.46487000       2.41565000      13.88094582      -0.20532754      -0.03199979       0.00770441
C       -0.92980000       4.83129000      13.87269623      -0.09731889       0.13524790      -0.00764786
C        1.85958000       1.61041000      13.88094759       0.13027943      -0.15868798       0.00769939
C        1.39467000       4.02611000      13.88094617       0.07334630       0.19158248       0.00770521
C        4.18405000       0.80523000      13.87152691      -0.00150273      -0.00053326       0.02102235
C        3.71912000       3.22088000      13.87269727       0.16588653       0.01754633      -0.00765420
C       -2.32448000       4.56294000      13.87152678      -0.00007400      -0.00158682       0.02102395
C        0.46490000       1.34206000      13.88094712      -0.07379717      -0.19447679       0.00770682
C       -0.00003000       3.75770000      13.88094560      -0.12894963       0.15942845       0.00770227
C        2.78935000       0.53682000      13.87269719       0.09801354      -0.13464322      -0.00765743
C        2.32448000       2.95247000      13.88094701       0.20228346       0.03258132       0.00770860
C        1.85954000       5.36812000      13.87269702       0.06875526       0.15145333      -0.00764591
C        4.64892000       2.14723000      13.87269727      -0.16369018      -0.01589066      -0.00765024
C        0.00000000       0.00000000      10.12730173      -0.06789822      -0.15003289       0.00765646
C       -0.46487000       2.41565000      10.11905418      -0.20532754      -0.03199979      -0.00770441
C       -0.92980000       4.83129000      10.12730377      -0.09731889       0.13524790       0.00764786
C        1.85958000       1.61041000      10.11905241       0.13027943      -0.15868798      -0.00769939
C        1.39467000       4.02611000      10.11905383       0.07334630       0.19158248      -0.00770521
C        4.18405000       0.80523000      10.12847309      -0.00150273      -0.00053326      -0.02102235
C        3.71912000       3.22088000      10.12730273       0.16588653       0.01754633       0.00765420
C       -2.32448000       4.56294000      10.12847322      -0.00007400      -0.00158682      -0.02102395
C        0.46490000       1.34206000      10.11905288      -0.07379717      -0.19447679      -0.00770682
C       -0.00003000       3.75770000      10.11905440      -0.12894963       0.15942845      -0.00770227
C        2.78935000       0.53682000      10.12730281       0.09801354      -0.13464322       0.00765743
C        2.32448000       2.95247000      10.11905299       0.20228346       0.03258132      -0.00770860
C        1.85954000       5.36812000      10.12730298       0.06875526       0.15145333       0.00764591
C        4.64892000       2.14723000      10.12730273      -0.16369018      -0.01589066       0.00765024
Li       0.92979470       2.68406955      12.00000000      -0.00001230       0.00002315      -0.00000000
29
Lattice="6.508500099 0.0 0.0 -3.25425005 5.636526426 0.0 0.0 0.0 24.0" Properties=species:S:1:pos:R:3:forces:R:3 energy=-262.1031232062619 stress="-0.0728052523317133 3.7260196362364273e-06 -7.022078129615579e-18 3.7260196362364273e-06 -0.07280616824597787 1.1986143103323462e-17 -7.022078129615579e-18 1.1986143103323462e-17 -0.00015788424451494058" free_energy=-262.1031232062619 pbc="T T T"
C        0.00000000       0.00000000      13.87205279      -0.06754858      -0.14985149       0.00369918
C       -0.46487000       2.41565000      13.88232860      -0.20514718      -0.03197883       0.00134645
C       -0.92980000       4.83129000      13.87205089      -0.09733776       0.13485507       0.00369844
C        1.85958000       1.61041000      13.88233027       0.13016929      -0.15854290       0.00134234
C        1.39467000       4.02611000      13.88232908       0.07327612       0.19141637       0.00134929
C        4.18405000       0.80523000      13.87199016      -0.00150209      -0.00053323       0.00341177
C        3.71912000       3.22088000      13.87205176       0.16555434       0.01775859       0.00370079
C       -2.32448000       4.56294000      13.87199015      -0.00007333      -0.00158685       0.00340961
C        0.46490000       1.34206000      13.88233013      -0.07372579      -0.19430856       0.00134158
C       -0.00003000       3.75770000      13.88232826      -0.12884168       0.15928421       0.00134769
C        2.78935000       0.53682000      13.87205148       0.09803102      -0.13424950       0.00369564
C        2.32448000       2.95247000      13.88233022       0.20210356       0.03255880       0.00134362
C        1.85954000       5.36812000      13.87205199       0.06840550       0.15127284       0.00369912
C        4.64892000       2.14723000      13.87205202      -0.16335896      -0.01610321       0.00369779
C        0.00000000       0.00000000      10.12794721      -0.06754858      -0.14985149      -0.00369918
C       -0.46487000       2.41565000      10.11767140      -0.20514718      -0.03197883      -0.00134645
C       -0.92980000       4.83129000      10.12794911      -0.09733776       0.13485507      -0.00369844
C        1.85958000       1.61041000      10.11766973       0.13016929      -0.15854290      -0.00134234
C        1.39467000       4.02611000      10.11767092       0.07327612       0.19141637      -0.00134929
C        4.18405000       0.80523000      10.12800984      -0.00150209      -0.00053323      -0.00341177
C        3.71912000       3.22088000      10.12794824       0.16555434       0.01775859      -0.00370079
C       -2.32448000       4.56294000      10.12800985      -0.00007333      -0.00158685      -0.00340961
C        0.46490000       1.34206000      10.11766987      -0.07372579      -0.19430856      -0.00134158
C       -0.00003000       3.75770000      10.11767174      -0.12884168       0.15928421      -0.00134769
C        2.78935000       0.53682000      10.12794852       0.09803102      -0.13424950      -0.00369564
C        2.32448000       2.95247000      10.11766978       0.20210356       0.03255880      -0.00134362
C        1.85954000       5.36812000      10.12794801       0.06840550       0.15127284      -0.00369912
C        4.64892000       2.14723000      10.12794798      -0.16335896      -0.01610321      -0.00369779
Li       0.92979299       2.68407269      12.00000000      -0.00000895       0.00001741      -0.00000000
