37
Lattice="7.380000114 0.0 0.0 -3.690000057 6.391267579 0.0 0.0 0.0 24.0" Properties=species:S:1:pos:R:3:forces:R:3 energy=-335.5437515039084 stress="-0.06904587696191097 3.1399655645598634e-06 1.871883260119852e-08 3.1399655645598634e-06 -0.06904166040523646 4.80221113126168e-08 1.871883260119852e-08 4.80221113126168e-08 -0.009605975829883765" free_energy=-335.5437515039084 pbc="T T T"
C        0.00000000       0.00000000      13.67500000       0.00011227      -0.31805131       0.18716919
C       -1.22999000       2.13040000      13.67500000      -0.27527751       0.16117262       0.18718371
C       -2.46001000       4.26087000      13.67500000      -0.03937552      -0.02354313       0.02634443
C        2.45998000       0.00000000      13.67500000       0.02969859      -0.01685298       0.05921697
C        1.22999000       2.13040000      13.67500000       0.27567637       0.16139073       0.18719152
C       -0.00004000       4.26087000      13.67500000       0.00060869       0.03348514       0.05921999
C        4.92002000       0.00000000      13.67500000      -0.03120724      -0.01812490       0.05921720
C        3.69004000       2.13040000      13.67500000      -0.00207715       0.04686306       0.02635308
C        2.46001000       4.26087000      13.67500000       0.03771840      -0.02454579       0.02635139
C        0.00000000       1.42027000      13.67500000      -0.00010734       0.00011192       3.83207669
C       -1.23002000       3.55073000      13.67500000       0.01179383       0.14371621       0.04337272
C       -2.46001000       5.68113000      13.67500000       0.13210422      -0.06198158       0.04339108
C        2.45998000       1.42027000      13.67500000       0.12181388      -0.08221964       0.04338234
C        1.22995000       3.55073000      13.67500000      -0.01025400       0.14479194       0.04337710
C       -0.00004000       5.68113000      13.67500000       0.00196335       0.00128693       0.00154928
C        4.92002000       1.42027000      13.67500000      -0.12029380      -0.08340685       0.04338788
C        3.69000000       3.55073000      13.67500000      -0.00025425      -0.00198853       0.02278770
C        2.46001000       5.68113000      13.67500000      -0.13265318      -0.06212872       0.04338993
C        0.00000000       0.00000000      10.32500000      -0.00010370      -0.27685804      -0.22255322
C       -1.22999000       2.13040000      10.32500000      -0.23989473       0.13880256      -0.22257621
C       -2.46001000       4.26087000      10.32500000      -0.03736681      -0.02382557      -0.04170593
C        2.45998000       0.00000000      10.32500000       0.19211442      -0.10890212      -0.00373373
C        1.22999000       2.13040000      10.32500000       0.24148250       0.13976531      -0.22257757
C       -0.00004000       4.26087000      10.32500000       0.00204354       0.21845174      -0.00373156
C        4.92002000       0.00000000      10.32500000      -0.19061779      -0.11015228      -0.00372793
C        3.69004000       2.13040000      10.32500000      -0.00060952       0.04316487      -0.04171317
C        2.46001000       4.26087000      10.32500000       0.03696536      -0.02402885      -0.04171615
C        1.22999000       0.71013000      10.32500000       0.23412685      -0.13475898      -0.20972877
C        0.00000000       2.84053000      10.32500000       0.00027014       0.27228151      -0.20973329
C       -1.23002000       4.97100000      10.32500000       0.03762986       0.02145102      -0.03940984
C        3.69004000       0.71013000      10.32500000      -0.00194258      -0.04416014      -0.03940070
C        2.46005000       2.84053000      10.32500000       0.18908926       0.11161562      -0.00187514
C        1.23002000       4.97100000      10.32500000      -0.03915564       0.02023332      -0.03940689
C        6.15001000       0.71013000      10.32500000      -0.23355936      -0.13490046      -0.20971424
C        4.92002000       2.84053000      10.32500000      -0.19060344       0.11268479      -0.00188745
C        3.69000000       4.97100000      10.32500000       0.00013391      -0.22085674      -0.00188751
Li       0.00000000       1.42027000      12.00000000       0.00000813       0.00001731      -3.37788291
37
Lattice="7.380000114 0.0 0.0 -3.690000057 6.391267579 0.0 0.0 0.0 24.0" Properties=species:S:1:pos:R:3:forces:R:3 energy=-335.9438290939441 stress="-0.06908922805515096 3.1304611148748484e-06 2.8921134256997358e-08 3.1304611148748484e-06 -0.06908509391890524 3.20407046451254e-08 2.8921134256997358e-08 3.20407046451254e-08 -0.006356265453859069" free_energy=-335.9438290939441 pbc="T T T"
C        0.00000000       0.00000000      13.68100408       0.00011323      -0.23899664       0.73730117
C       -1.22999000       2.13040000      13.68100454      -0.20680103       0.12158516       0.73729483
C       -2.46001000       4.26087000      13.67584509      -0.04411000      -0.02626889      -0.07523104
C        2.45998000       0.00000000      13.67689958       0.02322068      -0.01311543       0.08305363
C        1.22999000       2.13040000      13.68100479       0.20719846       0.12179439       0.73729489
C       -0.00004000       4.26087000      13.67689968       0.00061129       0.02600633       0.08304275
C        4.92002000       0.00000000      13.67689959      -0.02472120      -0.01438047       0.08304973
C        3.69004000       2.13040000      13.67584536      -0.00206571       0.05232797      -0.07523464
C        2.46001000       4.26087000      13.67584531       0.04245543      -0.02727056      -0.07523222
C        0.00000000       1.42027000      13.79792669      -0.00010747       0.00016601      -0.16243328
C       -1.23002000       3.55073000      13.67639133       0.00030257       0.14213868       0.01261665
C       -2.46001000       5.68113000      13.67639191       0.12496338      -0.07113894       0.01260758
C        2.45998000       1.42027000      13.67639163       0.12616765      -0.07145218       0.01261481
C        1.22995000       3.55073000      13.67639147       0.00123660       0.14322381       0.01261704
C       -0.00004000       5.68113000      13.67504970       0.00195546       0.00128408       0.03727538
C        4.92002000       1.42027000      13.67639181      -0.12465363      -0.07264351       0.01261129
C        3.69000000       3.55073000      13.67573099      -0.00025473      -0.00199447       0.04878077
C        2.46001000       5.68113000      13.67639188      -0.12551357      -0.07128506       0.01260821
C        0.00000000       0.00000000      10.31786086      -0.00010034      -0.35051771      -0.27953206
C       -1.22999000       2.13040000      10.31786012      -0.30368138       0.17563234      -0.27954766
C       -2.46001000       4.26087000      10.32366214      -0.03787380      -0.02412933      -0.02862772
C        2.45998000       0.00000000      10.32488023       0.19525834      -0.11071082      -0.03091244
C        1.22999000       2.13040000      10.31786008       0.30527456       0.17658889      -0.27953805
C       -0.00004000       4.26087000      10.32488030       0.00205120       0.22207984      -0.03092372
C        4.92002000       0.00000000      10.32488041      -0.19375526      -0.11196555      -0.03090500
C        3.69004000       2.13040000      10.32366191      -0.00061094       0.04375152      -0.02862731
C        2.46001000       4.26087000      10.32366181       0.03747627      -0.02433103      -0.02863024
C        1.22999000       0.71013000      10.31827225       0.29747076      -0.17132787      -0.28183398
C        0.00000000       2.84053000      10.31827210       0.00026516       0.34542995      -0.28183556
C       -1.23002000       4.97100000      10.32373580       0.03913517       0.02232116      -0.02830828
C        3.69004000       0.71013000      10.32373609      -0.00195218      -0.04590122      -0.02830556
C        2.46005000       2.84053000      10.32493985       0.19223688       0.11344230      -0.03262831
C        1.23002000       4.97100000      10.32373589      -0.04066871       0.02110174      -0.02830782
C        6.15001000       0.71013000      10.31827271      -0.29690792      -0.17147179      -0.28182504
C        4.92002000       2.84053000      10.32493945      -0.19374748       0.11450921      -0.03262356
C        3.69000000       4.97100000      10.32493945       0.00013328      -0.22448881      -0.03261910
Li       0.00000026       1.42027056      11.89164309      -0.00000101       0.00000690      -0.18910614
37
Lattice="7.380000114 0.0 0.0 -3.690000057 6.391267579 0.0 0.0 0.0 24.0" Properties=species:S:1:pos:R:3:forces:R:3 energy=-336.0366044529667 stress="-0.06938943830556607 3.1167638836618185e-06 1.8273295371923534e-08 3.1167638836618185e-06 -0.06938533769340485 -8.968716395060872e-08 1.8273295371923534e-08 -8.968716395060872e-08 -0.00580114065595263" free_energy=-336.0366044529667 pbc="T T T"
C        0.00000000       0.00000000      13.73437635       0.00011205      -0.30138737      -0.03886558
C       -1.22999000       2.13040000      13.73437641      -0.26083649       0.15277451      -0.03891752
C       -2.46001000       4.26087000      13.67057108      -0.04319511      -0.02575250      -0.02016617
C        2.45998000       0.00000000      13.68305595       0.03791275      -0.02159811      -0.01547730
C        1.22999000       2.13040000      13.73437670       0.26125102       0.15299365      -0.03891053
C       -0.00004000       4.26087000      13.68305528       0.00061059       0.04296502      -0.01546508
C        4.92002000       0.00000000      13.68305568      -0.03941191      -0.02286073      -0.01548240
C        3.69004000       2.13040000      13.67057113      -0.00207955       0.05128318      -0.02014785
C        2.46001000       4.26087000      13.67057124       0.04153623      -0.02675625      -0.02015805
C        0.00000000       1.42027000      13.80081772      -0.00011478       0.00017027       0.54308833
C       -1.23002000       3.55073000      13.67745656       0.00568995       0.11742529       0.27086532
C       -2.46001000       5.68113000      13.67745657       0.10624754      -0.05412029       0.27083533
C        2.45998000       1.42027000      13.67745677       0.10206096      -0.06374425       0.27080776
C        1.22995000       3.55073000      13.67745674      -0.00414320       0.11850796       0.27086370
C       -0.00004000       5.68113000      13.67771809       0.00195336       0.00128149      -0.03328332
C        4.92002000       1.42027000      13.67745672      -0.10054410      -0.06494250       0.27082104
C        3.69000000       3.55073000      13.67930152      -0.00025262      -0.00199999      -0.04203551
C        2.46001000       5.68113000      13.67745657      -0.10679552      -0.05426198       0.27082281
C        0.00000000       0.00000000      10.29705256      -0.00009939      -0.36611116      -0.23099573
C       -1.22999000       2.13040000      10.29705062      -0.31718345       0.18343022      -0.23099391
C       -2.46001000       4.26087000      10.32145957      -0.03606000      -0.02308192      -0.01385612
C        2.45998000       0.00000000      10.32265808       0.19438829      -0.11021021      -0.08636678
C        1.22999000       2.13040000      10.29705126       0.31877686       0.18438397      -0.23097619
C       -0.00004000       4.26087000      10.32265735       0.00205083       0.22107456      -0.08639099
C        4.92002000       0.00000000      10.32265882      -0.19288717      -0.11146521      -0.08635985
C        3.69004000       2.13040000      10.32145934      -0.00061197       0.04165772      -0.01385648
C        2.46001000       4.26087000      10.32145902       0.03566353      -0.02328396      -0.01385753
C        1.22999000       0.71013000      10.29734803       0.31076574      -0.17900140      -0.23500880
C        0.00000000       2.84053000      10.29734775       0.00026412       0.36078341      -0.23500186
C       -1.23002000       4.97100000      10.32156472       0.03917595       0.02234412      -0.01332060
C        3.69004000       0.71013000      10.32156525      -0.00195108      -0.04594661      -0.01331436
C        2.46005000       2.84053000      10.32260216       0.18955885       0.11189629      -0.08677769
C        1.23002000       4.97100000      10.32156486      -0.04070863       0.02112638      -0.01331882
C        6.15001000       0.71013000      10.29734919      -0.31020407      -0.17914712      -0.23500936
C        4.92002000       2.84053000      10.32260206      -0.19106746       0.11296039      -0.08675995
C        3.69000000       4.97100000      10.32260238       0.00013238      -0.22139567      -0.08675165
Li       0.00000022       1.42027111      11.86535993      -0.00000450       0.00000877       0.12972169
37
Lattice="7.380000114 0.0 0.0 -3.690000057 6.391267579 0.0 0.0 0.0 24.0" Properties=species:S:1:pos:R:3:forces:R:3 energy=-336.1236380247538 stress="-0.06911384966296373 3.090334002594563e-06 1.3484609666153964e-08 3.090334002594563e-06 -0.06910975998553087 -1.0406567815757466e-08 1.3484609666153964e-08 -1.0406567815757466e-08 -0.0041405143270572264" free_energy=-336.1236380247538 pbc="T T T"
C        0.00000000       0.00000000      13.77105281       0.00010771      -0.24821460       0.24321136
C       -1.22999000       2.13040000      13.77104538      -0.21477084       0.12617039       0.24328456
C       -2.46001000       4.26087000      13.66362568      -0.02940712      -0.01779919       0.34384682
C        2.45998000       0.00000000      13.68576550       0.02839133      -0.01610372       0.32268350
C        1.22999000       2.13040000      13.77104666       0.21518063       0.12638829       0.24325676
C       -0.00004000       4.26087000      13.68576592       0.00061066       0.03195947       0.32275491
C        4.92002000       0.00000000      13.68576431      -0.02989225      -0.01736276       0.32268411
C        3.69004000       2.13040000      13.66362809      -0.00208171       0.03537069       0.34383004
C        2.46001000       4.26087000      13.66362692       0.02774617      -0.01879634       0.34387236
C        0.00000000       1.42027000      13.87822894      -0.00010640       0.00020369      -0.35661997
C       -1.23002000       3.55073000      13.71576862      -0.00558291       0.13286532      -0.13358227
C       -2.46001000       5.68113000      13.71576402       0.11396811      -0.07159593      -0.13350720
C        2.45998000       1.42027000      13.71576079       0.12105385      -0.06169364      -0.13355648
C        1.22995000       3.55073000      13.71576862       0.00713642       0.13394237      -0.13361105
C       -0.00004000       5.68113000      13.67521601       0.00195787       0.00127991      -0.14013070
C        4.92002000       1.42027000      13.71576240      -0.11954437      -0.06289468      -0.13352473
C        3.69000000       3.55073000      13.67629944      -0.00024949      -0.00200412      -0.16983018
C        2.46001000       5.68113000      13.71576233      -0.11451399      -0.07173732      -0.13350342
C        0.00000000       0.00000000      10.24870019      -0.00009662      -0.35416408      -0.09614550
C       -1.22999000       2.13040000      10.24869756      -0.30683456       0.17746519      -0.09613661
C       -2.46001000       4.26087000      10.31780719      -0.03322969      -0.02145532      -0.07784442
C        2.45998000       0.00000000      10.30895881       0.17504198      -0.09904259      -0.08647586
C        1.22999000       2.13040000      10.24870119       0.30842349       0.17841198      -0.09613917
C       -0.00004000       4.26087000      10.30895411       0.00205236       0.19874201      -0.08648931
C        4.92002000       0.00000000      10.30896095      -0.17354121      -0.10029890      -0.08648806
C        3.69004000       2.13040000      10.31780691      -0.00061718       0.03839458      -0.07785010
C        2.46001000       4.26087000      10.31780627       0.03283674      -0.02165938      -0.07785641
C        1.22999000       0.71013000      10.24834914       0.30182753      -0.17383174      -0.08941806
C        0.00000000       2.84053000      10.24834972       0.00026894       0.35045242      -0.08941119
C       -1.23002000       4.97100000      10.31801125       0.03680034       0.02096671      -0.07972205
C        3.69004000       0.71013000      10.31801282      -0.00195620      -0.04319796      -0.07971049
C        2.46005000       2.84053000      10.30875502       0.17061018       0.10095981      -0.08698428
C        1.23002000       4.97100000      10.31801167      -0.03833531       0.01974977      -0.07972784
C        6.15001000       0.71013000      10.24835077      -0.30126404      -0.17398375      -0.08943715
C        4.92002000       2.84053000      10.30875761      -0.17211361       0.10201832      -0.08698286
C        3.69000000       4.97100000      10.30875932       0.00013017      -0.19950998      -0.08699223
Li      -0.00000043       1.42027277      11.86259707      -0.00000699       0.00000509       0.28825318
37
Lattice="7.380000114 0.0 0.0 -3.690000057 6.391267579 0.0 0.0 0.0 24.0" Properties=species:S:1:pos:R:3:forces:R:3 energy=-336.17349932532477 stress="-0.06893029618491517 3.067611432779927e-06 1.3624847758252224e-07 3.067611432779927e-06 -0.0689262617288243 2.4496540485991906e-08 1.3624847758252224e-07 2.4496540485991906e-08 -0.0030914772018891886" free_energy=-336.17349932532477 pbc="T T T"
C        0.00000000       0.00000000      13.81498157       0.00010306      -0.28314204      -0.06736558
C       -1.22999000       2.13040000      13.81497393      -0.24503112       0.14362837      -0.06733306
C       -2.46001000       4.26087000      13.68315718      -0.03633191      -0.02180408       0.09850276
C        2.45998000       0.00000000      13.71077624       0.04704783      -0.02687651       0.06892031
C        1.22999000       2.13040000      13.81497395       0.24544756       0.14385331      -0.06737959
C       -0.00004000       4.26087000      13.71078255       0.00060974       0.05351192       0.06892688
C        4.92002000       0.00000000      13.71077442      -0.04854333      -0.02812829       0.06889577
C        3.69004000       2.13040000      13.68316009      -0.00209074       0.04337655       0.09840593
C        2.46001000       4.26087000      13.68316102       0.03467031      -0.02280206       0.09847778
C        0.00000000       1.42027000      13.90880763      -0.00010542       0.00020778      -0.14114115
C       -1.23002000       3.55073000      13.73396784      -0.00356018       0.09797148       0.05167849
C       -2.46001000       5.68113000      13.73396527       0.08475476      -0.05239972       0.05168310
C        2.45998000       1.42027000      13.73395604       0.08980830      -0.04598470       0.05169003
C        1.22995000       3.55073000      13.73396565       0.00511998       0.09903920       0.05168691
C       -0.00004000       5.68113000      13.66339498       0.00195436       0.00126464       0.28502742
C        4.92002000       1.42027000      13.73396111      -0.08830006      -0.04719195       0.05167858
C        3.69000000       3.55073000      13.66199498      -0.00025114      -0.00201338       0.26902502
C        2.46001000       5.68113000      13.73396262      -0.08529654      -0.05253316       0.05170074
C        0.00000000       0.00000000      10.20682191      -0.00009397      -0.34687504       0.02345343
C       -1.22999000       2.13040000      10.20681941      -0.30052156       0.17383125       0.02346860
C       -2.46001000       4.26087000      10.30960227      -0.03278319      -0.02120765      -0.13002925
C        2.45998000       0.00000000      10.29286267       0.15089584      -0.08510435      -0.08224559
C        1.22999000       2.13040000      10.20682501       0.30210539       0.17477147       0.02345888
C       -0.00004000       4.26087000      10.29285412       0.00205340       0.17087109      -0.08223920
C        4.92002000       0.00000000      10.29286494      -0.14939425      -0.08636034      -0.08227116
C        3.69004000       2.13040000      10.30960155      -0.00062500       0.03788617      -0.13002464
C        2.46001000       4.26087000      10.30960024       0.03239376      -0.02141452      -0.13003990
C        1.22999000       0.71013000      10.20648325       0.29702351      -0.17104808       0.03147123
C        0.00000000       2.84053000      10.20648495       0.00027513       0.34488868       0.03147244
C       -1.23002000       4.97100000      10.30974384       0.03658133       0.02083120      -0.12623177
C        3.69004000       0.71013000      10.30974698      -0.00196307      -0.04293616      -0.12622594
C        2.46005000       2.84053000      10.29251549       0.14625586       0.08690021      -0.07976737
C        1.23002000       4.97100000      10.30974405      -0.03811805       0.01961515      -0.12624717
C        6.15001000       0.71013000      10.20648386      -0.29645517      -0.17120489       0.03145136
C        4.92002000       2.84053000      10.29252012      -0.14775532       0.08795277      -0.07977396
C        3.69000000       4.97100000      10.29252218       0.00012731      -0.17138126      -0.07979307
Li      -0.00000141       1.42027433      11.88118607      -0.00000740       0.00000695       0.06703276
37
Lattice="7.380000114 0.0 0.0 -3.690000057 6.391267579 0.0 0.0 0.0 24.0" Properties=species:S:1:pos:R:3:forces:R:3 energy=-336.2500656304707 stress="-0.07001189738639294 3.0488249248685575e-06 5.991622042981454e-08 3.0488249248685575e-06 -0.07000794556136385 3.252362304625731e-08 5.991622042981454e-08 3.252362304625731e-08 -0.002497781761542042" free_energy=-336.2500656304707 pbc="T T T"
C        0.00000000       0.00000000      13.82829520       0.00010563      -0.29948713      -0.16217652
C       -1.22999000       2.13040000      13.82829716      -0.25922081       0.15180507      -0.16229517
C       -2.46001000       4.26087000      13.72761305      -0.03665884      -0.02198142       0.15345396
C        2.45998000       0.00000000      13.75053875       0.03517285      -0.02001487       0.11531435
C        1.22999000       2.13040000      13.82828225       0.25960650       0.15201786      -0.16214137
C       -0.00004000       4.26087000      13.75055153       0.00060587       0.03981006       0.11521683
C        4.92002000       0.00000000      13.75052909      -0.03666146      -0.02126564       0.11543944
C        3.69004000       2.13040000      13.72758731      -0.00207701       0.04372217       0.15370502
C        2.46001000       4.26087000      13.72761139       0.03499797      -0.02296798       0.15351698
C        0.00000000       1.42027000      13.88980076      -0.00009010       0.00018194       0.45356253
C       -1.23002000       3.55073000      13.76335974       0.00288300       0.10945084       0.06653369
C       -2.46001000       5.68113000      13.76336010       0.09792200      -0.05256661       0.06644216
C        2.45998000       1.42027000      13.76334836       0.09654501      -0.05730656       0.06628231
C        1.22995000       3.55073000      13.76335840      -0.00132742       0.11053184       0.06642516
C       -0.00004000       5.68113000      13.73988223       0.00194218       0.00126034      -0.10539820
C        4.92002000       1.42027000      13.76335265      -0.09502441      -0.05849648       0.06632581
C        3.69000000       3.55073000      13.73178634      -0.00024635      -0.00199942      -0.05769900
C        2.46001000       5.68113000      13.76336201      -0.09846467      -0.05271460       0.06635119
C        0.00000000       0.00000000      10.18189941      -0.00009227      -0.29671316       0.07975345
C       -1.22999000       2.13040000      10.18190156      -0.25707807       0.14875004       0.07975351
C       -2.46001000       4.26087000      10.26433209      -0.03164048      -0.02053244      -0.02720423
C        2.45998000       0.00000000      10.25590556       0.16507916      -0.09330788      -0.09224250
C        1.22999000       2.13040000      10.18190577       0.25865846       0.14968667       0.07977925
C       -0.00004000       4.26087000      10.25589600       0.00204438       0.18725933      -0.09222753
C        4.92002000       0.00000000      10.25590027      -0.16358643      -0.09455620      -0.09223833
C        3.69004000       2.13040000      10.26433242      -0.00061760       0.03656918      -0.02719350
C        2.46001000       4.26087000      10.26432601       0.03125683      -0.02074141      -0.02719540
C        1.22999000       0.71013000      10.18397556       0.24973718      -0.14374985       0.02409094
C        0.00000000       2.84053000      10.18397847       0.00027507       0.29027549       0.02407729
C       -1.23002000       4.97100000      10.26556520       0.03536985       0.02013866      -0.05506768
C        3.69004000       0.71013000      10.26557131      -0.00194843      -0.04153133      -0.05510925
C        2.46005000       2.84053000      10.25619242       0.15633832       0.09270963      -0.12607615
C        1.23002000       4.97100000      10.26556063      -0.03689778       0.01892848      -0.05507675
C        6.15001000       0.71013000      10.18396943      -0.24917364      -0.14390740       0.02411613
C        4.92002000       2.84053000      10.25619663      -0.15784733       0.09375935      -0.12606462
C        3.69000000       4.97100000      10.25619322       0.00012252      -0.18302406      -0.12605683
Li      -0.00000437       1.42027760      11.91548170      -0.00000965       0.00000746      -0.41867697
37
Lattice="7.380000114 0.0 0.0 -3.690000057 6.391267579 0.0 0.0 0.0 24.0" Properties=species:S:1:pos:R:3:forces:R:3 energy=-336.28836380578815 stress="-0.0703541870935458 3.0404758690529006e-06 7.631434856668608e-08 3.0404758690529006e-06 -0.07035026130851388 9.971338932189433e-08 7.631434856668608e-08 9.971338932189433e-08 -0.0019361852578772246" free_energy=-336.28836380578815 pbc="T T T"
C        0.00000000       0.00000000      13.82186302       0.00010486      -0.23994361       0.17725142
C       -1.22999000       2.13040000      13.82186023      -0.20763832       0.12201027       0.17723553
C       -2.46001000       4.26087000      13.75577677      -0.04014688      -0.02398629       0.02590032
C        2.45998000       0.00000000      13.77416206       0.03147593      -0.01787842       0.04388862
C        1.22999000       2.13040000      13.82185053       0.20801997       0.12222273       0.17727494
C       -0.00004000       4.26087000      13.77417037       0.00060488       0.03554181       0.04394757
C        4.92002000       0.00000000      13.77415830      -0.03296600      -0.01913045       0.04391479
C        3.69004000       2.13040000      13.75575787      -0.00206383       0.04774521       0.02588920
C        2.46001000       4.26087000      13.75577748       0.03849081      -0.02497197       0.02584012
C        0.00000000       1.42027000      13.91484316      -0.00008580       0.00019505      -0.25062087
C       -1.23002000       3.55073000      13.77948568       0.00196087       0.12648193       0.03400743
C       -2.46001000       5.68113000      13.77948064       0.11219709      -0.06187319       0.03404522
C        2.45998000       1.42027000      13.77945652       0.11172478      -0.06502129       0.03412316
C        1.22995000       3.55073000      13.77947692      -0.00041359       0.12754763       0.03405234
C       -0.00004000       5.68113000      13.76195142       0.00193974       0.00125705       0.00581817
C        4.92002000       1.42027000      13.77946360      -0.11021760      -0.06620907       0.03410685
C        3.69000000       3.55073000      13.75467157      -0.00024573      -0.00198674       0.00535131
C        2.46001000       5.68113000      13.77947781      -0.11273408      -0.06202010       0.03406407
C        0.00000000       0.00000000      10.17795204      -0.00009247      -0.28071665      -0.00835091
C       -1.22999000       2.13040000      10.17795599      -0.24322508       0.14074692      -0.00837071
C       -2.46001000       4.26087000      10.24487111      -0.03107528      -0.02019786      -0.07580788
C        2.45998000       0.00000000      10.23501583       0.17693361      -0.10015677      -0.04507819
C        1.22999000       2.13040000      10.17796149       0.24480289       0.14168188      -0.00838213
C       -0.00004000       4.26087000      10.23500695       0.00204089       0.20095229      -0.04506043
C        4.92002000       0.00000000      10.23500791      -0.17544448      -0.10140256      -0.04505937
C        3.69004000       2.13040000      10.24487261      -0.00061260       0.03591479      -0.07581399
C        2.46001000       4.26087000      10.24486409       0.03069338      -0.02040699      -0.07580631
C        1.22999000       0.71013000      10.17698673       0.23883564      -0.13745857       0.02373465
C        0.00000000       2.84053000      10.17698913       0.00027294       0.27768930       0.02371904
C       -1.23002000       4.97100000      10.24453636       0.03335071       0.01897670      -0.05252892
C        3.69004000       0.71013000      10.24454064      -0.00194174      -0.03919822      -0.05255400
C        2.46005000       2.84053000      10.23313135       0.17437667       0.10311937      -0.01912204
C        1.23002000       4.97100000      10.24452929      -0.03487600       0.01776884      -0.05252484
C        6.15001000       0.71013000      10.17697978      -0.23827501      -0.13761548       0.02374734
C        4.92002000       2.84053000      10.23313622      -0.17588497       0.10416682      -0.01914413
C        3.69000000       4.97100000      10.23313125       0.00012188      -0.20384797      -0.01914472
Li      -0.00000621       1.42027940      11.89884730      -0.00000808       0.00000362      -0.17454268
37