37
Lattice="7.380000114 0.0 0.0 -3.690000057 6.391267579 0.0 0.0 0.0 24.0" Properties=species:S:1:pos:R:3:forces:R:3 energy=-336.4348581729932 stress="-0.07130041793766954 3.037099957620085e-06 -3.451929123919095e-18 3.037099957620085e-06 -0.07129794452088124 5.4976682752795e-18 -3.451929123919095e-18 5.4976682752795e-18 -0.00020074212159839106" free_energy=-336.4348581729932 pbc="T T T"
C        0.00000000       0.00000000      13.87500000      -0.15515900      -0.08973020       0.03205564
C       -1.22999000       2.13040000      13.87500000      -0.17074293       0.10074117      -0.02993906
C       -2.46001000       4.26087000      13.87500000       0.00003703      -0.19803036      -0.02993376
C        2.45998000       0.00000000      13.87500000       0.15542132      -0.08941411       0.03205792
C        1.22999000       2.13040000      13.87500000       0.00029153       0.18152215       0.03208496
C       -0.00004000       4.26087000      13.87500000       0.03050801       0.01664343       0.00798369
C        4.92002000       0.00000000      13.87500000      -0.00163591      -0.03556392       0.00796433
C        3.69004000       2.13040000      13.87500000       0.16884195       0.09996369      -0.02994935
C        2.46001000       4.26087000      13.87500000      -0.03158290       0.01550609       0.00797750
C        0.00000000       1.42027000      13.87500000      -0.15538566       0.08982334       0.03209489
C       -1.23002000       3.55073000      13.87500000      -0.03018340      -0.01922496       0.00796541
C       -2.46001000       5.68113000      13.87500000      -0.00014138      -0.17888395       0.03204151
C        2.45998000       1.42027000      13.87500000       0.15682439       0.09075284       0.03205911
C        1.22995000       3.55073000      13.87500000       0.00182909       0.19643909      -0.02995020
C       -0.00004000       5.68113000      13.87500000       0.17275413      -0.09737733      -0.02993885
C        4.92002000       1.42027000      13.87500000      -0.00011900       0.03446112       0.00798405
C        3.69000000       3.55073000      13.87500000       0.02965034      -0.01922585       0.00797507
C        2.46001000       5.68113000      13.87500000      -0.17124322      -0.09837697      -0.02993438
C        0.00000000       0.00000000      10.12500000      -0.15515900      -0.08973020      -0.03205564
C       -1.22999000       2.13040000      10.12500000      -0.17074293       0.10074117       0.02993906
C       -2.46001000       4.26087000      10.12500000       0.00003703      -0.19803036       0.02993376
C        2.45998000       0.00000000      10.12500000       0.15542132      -0.08941411      -0.03205792
C        1.22999000       2.13040000      10.12500000       0.00029153       0.18152215      -0.03208496
C       -0.00004000       4.26087000      10.12500000       0.03050801       0.01664343      -0.00798369
C        4.92002000       0.00000000      10.12500000      -0.00163591      -0.03556392      -0.00796433
C        3.69004000       2.13040000      10.12500000       0.16884195       0.09996369       0.02994935
C        2.46001000       4.26087000      10.12500000      -0.03158290       0.01550609      -0.00797750
C        0.00000000       1.42027000      10.12500000      -0.15538566       0.08982334      -0.03209489
C       -1.23002000       3.55073000      10.12500000      -0.03018340      -0.01922496      -0.00796541
C       -2.46001000       5.68113000      10.12500000      -0.00014138      -0.17888395      -0.03204151
C        2.45998000       1.42027000      10.12500000       0.15682439       0.09075284      -0.03205911
C        1.22995000       3.55073000      10.12500000       0.00182909       0.19643909       0.02995020
C       -0.00004000       5.68113000      10.12500000       0.17275413      -0.09737733       0.02993885
C        4.92002000       1.42027000      10.12500000      -0.00011900       0.03446112      -0.00798405
C        3.69000000       3.55073000      10.12500000       0.02965034      -0.01922585      -0.00797507
C        2.46001000       5.68113000      10.12500000      -0.17124322      -0.09837697       0.02993438
Li       1.22995000       0.71016000      12.00000000       0.00007121      -0.00005054       0.00000000
37
Lattice="7.380000114 0.0 0.0 -3.690000057 6.391267579 0.0 0.0 0.0 24.0" Properties=species:S:1:pos:R:3:forces:R:3 energy=-336.4357442446299 stress="-0.07132459346169996 3.0346880610053326e-06 -4.69194184925918e-18 3.0346880610053326e-06 -0.07132212088895508 5.468874651032443e-20 -4.69194184925918e-18 5.468874651032443e-20 -0.0001722582041694283" free_energy=-336.4357442446299 pbc="T T T"
C        0.00000000       0.00000000      13.87728969      -0.15457977      -0.08939463       0.01857522
C       -1.22999000       2.13040000      13.87286150      -0.17112978       0.10096385       0.01153688
C       -2.46001000       4.26087000      13.87286187       0.00003740      -0.19847944       0.01150988
C        2.45998000       0.00000000      13.87728985       0.15484401      -0.08908081       0.01856315
C        1.22999000       2.13040000      13.87729178       0.00029058       0.18085143       0.01857087
C       -0.00004000       4.26087000      13.87557026       0.03007638       0.01639536      -0.02143534
C        4.92002000       0.00000000      13.87556888      -0.00163622      -0.03506567      -0.02142459
C        3.69004000       2.13040000      13.87286076       0.16923128       0.10018726       0.01152737
C        2.46001000       4.26087000      13.87556982      -0.03115155       0.01525784      -0.02143600
C        0.00000000       1.42027000      13.87729249      -0.15480391       0.08948761       0.01857670
C       -1.23002000       3.55073000      13.87556896      -0.02975287      -0.01897452      -0.02142655
C       -2.46001000       5.68113000      13.87728868      -0.00014206      -0.17821703       0.01856901
C        2.45998000       1.42027000      13.87728994       0.15624547       0.09041959       0.01856714
C        1.22995000       3.55073000      13.87286070       0.00182926       0.19688641       0.01153951
C       -0.00004000       5.68113000      13.87286151       0.17314264      -0.09760234       0.01152132
C        4.92002000       1.42027000      13.87557029      -0.00012019       0.03396356      -0.02143793
C        3.69000000       3.55073000      13.87556965       0.02921911      -0.01897637      -0.02143028
C        2.46001000       5.68113000      13.87286183      -0.17163078      -0.09860173       0.01151548
C        0.00000000       0.00000000      10.12271031      -0.15457977      -0.08939463      -0.01857522
C       -1.22999000       2.13040000      10.12713850      -0.17112978       0.10096385      -0.01153688
C       -2.46001000       4.26087000      10.12713813       0.00003740      -0.19847944      -0.01150988
C        2.45998000       0.00000000      10.12271015       0.15484401      -0.08908081      -0.01856315
C        1.22999000       2.13040000      10.12270822       0.00029058       0.18085143      -0.01857087
C       -0.00004000       4.26087000      10.12442974       0.03007638       0.01639536       0.02143534
C        4.92002000       0.00000000      10.12443112      -0.00163622      -0.03506567       0.02142459
C        3.69004000       2.13040000      10.12713924       0.16923128       0.10018726      -0.01152737
C        2.46001000       4.26087000      10.12443018      -0.03115155       0.01525784       0.02143600
C        0.00000000       1.42027000      10.12270751      -0.15480391       0.08948761      -0.01857670
C       -1.23002000       3.55073000      10.12443104      -0.02975287      -0.01897452       0.02142655
C       -2.46001000       5.68113000      10.12271132      -0.00014206      -0.17821703      -0.01856901
C        2.45998000       1.42027000      10.12271006       0.15624547       0.09041959      -0.01856714
C        1.22995000       3.55073000      10.12713930       0.00182926       0.19688641      -0.01153951
C       -0.00004000       5.68113000      10.12713849       0.17314264      -0.09760234      -0.01152132
C        4.92002000       1.42027000      10.12442971      -0.00012019       0.03396356       0.02143793
C        3.69000000       3.55073000      10.12443035       0.02921911      -0.01897637       0.02143028
C        2.46001000       5.68113000      10.12713817      -0.17163078      -0.09860173      -0.01151548
Li       1.22995509       0.71015639      12.00000000       0.00006201      -0.00004075       0.00000000
37
Lattice="7.380000114 0.0 0.0 -3.690000057 6.391267579 0.0 0.0 0.0 24.0" Properties=species:S:1:pos:R:3:forces:R:3 energy=-336.43690192481637 stress="-0.0713633935743315 3.032993547951174e-06 -4.817919515568745e-18 3.032993547951174e-06 -0.07136092186725511 2.7264730207341325e-18 -4.817919515568745e-18 2.7264730207341325e-18 -0.00010026318605378405" free_energy=-336.43690192481637 pbc="T T T"
C        0.00000000       0.00000000      13.88373750      -0.15432546      -0.08924308       0.00250865
C       -1.22999000       2.13040000      13.87258774      -0.17098633       0.10088147      -0.00215130
C       -2.46001000       4.26087000      13.87258320       0.00003913      -0.19832339      -0.00215083
C        2.45998000       0.00000000      13.88373546       0.15459813      -0.08893802       0.00251714
C        1.22999000       2.13040000      13.88374124       0.00028725       0.18055364       0.00250085
C       -0.00004000       4.26087000      13.87198980       0.03023038       0.01648707       0.00468438
C        4.92002000       0.00000000      13.87198889      -0.00163911      -0.03524505       0.00467396
C        3.69004000       2.13040000      13.87258423       0.16909557       0.10010729      -0.00214780
C        2.46001000       4.26087000      13.87198869      -0.03130793       0.01534777       0.00468667
C        0.00000000       1.42027000      13.88374397      -0.15454241       0.08933769       0.00248617
C       -1.23002000       3.55073000      13.87198867      -0.02991026      -0.01906214       0.00468370
C       -2.46001000       5.68113000      13.88373404      -0.00014510      -0.17792954       0.00251898
C        2.45998000       1.42027000      13.88373643       0.15599306       0.09027847       0.00251327
C        1.22995000       3.55073000      13.87258652       0.00183120       0.19672352      -0.00214969
C       -0.00004000       5.68113000      13.87258468       0.17300880      -0.09752454      -0.00216112
C        4.92002000       1.42027000      13.87198934      -0.00012343       0.03414346       0.00468846
C        3.69000000       3.55073000      13.87198945       0.02937398      -0.01906616       0.00466744
C        2.46001000       5.68113000      13.87258422      -0.17149057      -0.09852260      -0.00214389
C        0.00000000       0.00000000      10.11626250      -0.15432546      -0.08924308      -0.00250865
C       -1.22999000       2.13040000      10.12741226      -0.17098633       0.10088147       0.00215130
C       -2.46001000       4.26087000      10.12741680       0.00003913      -0.19832339       0.00215083
C        2.45998000       0.00000000      10.11626454       0.15459813      -0.08893802      -0.00251714
C        1.22999000       2.13040000      10.11625876       0.00028725       0.18055364      -0.00250085
C       -0.00004000       4.26087000      10.12801020       0.03023038       0.01648707      -0.00468438
C        4.92002000       0.00000000      10.12801111      -0.00163911      -0.03524505      -0.00467396
C        3.69004000       2.13040000      10.12741577       0.16909557       0.10010729       0.00214780
C        2.46001000       4.26087000      10.12801131      -0.03130793       0.01534777      -0.00468667
C        0.00000000       1.42027000      10.11625603      -0.15454241       0.08933769      -0.00248617
C       -1.23002000       3.55073000      10.12801133      -0.02991026      -0.01906214      -0.00468370
C       -2.46001000       5.68113000      10.11626596      -0.00014510      -0.17792954      -0.00251898
C        2.45998000       1.42027000      10.11626357       0.15599306       0.09027847      -0.00251327
C        1.22995000       3.55073000      10.12741348       0.00183120       0.19672352       0.00214969
C       -0.00004000       5.68113000      10.12741532       0.17300880      -0.09752454       0.00216112
C        4.92002000       1.42027000      10.12801066      -0.00012343       0.03414346      -0.00468846
C        3.69000000       3.55073000      10.12801055       0.02937398      -0.01906616      -0.00466744
C        2.46001000       5.68113000      10.12741578      -0.17149057      -0.09852260       0.00214389
Li       1.22997354       0.71014394      12.00000000       0.00002620      -0.00001170       0.00000000
