49
Lattice="8.52159977 0.0 0.0 -4.260799885 7.379921881 0.0 0.0 0.0 24.0" Properties=species:S:1:pos:R:3:forces:R:3 energy=-447.92254165533745 stress="-0.07014002727974097 -4.730566103788225e-09 3.4573823229564515e-18 -4.730566103788225e-09 -0.07013956911420359 4.3323782233200103e-19 3.4573823229564515e-18 4.3323782233200103e-19 -0.00016031030578764446" free_energy=-447.92254165533745 pbc="T T T"
C        0.00000000       0.00000000      13.87500000      -0.08878229      -0.15406480      -0.02680075
C       -2.13040000       3.68996000      13.87500000      -0.01053318      -0.03800100       0.00118280
C        4.26080000       0.00000000      13.87500000      -0.02768162      -0.02816237       0.00118177
C        2.13040000       3.68996000      13.87500000       0.10493218       0.18174546       0.03519734
C        0.00000000       2.46002000      13.87500000      -0.20741388      -0.00142240       0.03517914
C       -2.13040000       6.14998000      13.87500000       0.04086281       0.00850959       0.00117879
C        4.26080000       2.46002000      13.87500000       0.18025617      -0.00142576      -0.02679251
C        2.13040000       6.14998000      13.87500000       0.04060330      -0.01126273       0.00117664
C        2.13044000       1.23001000      13.87500000       0.10247765      -0.18034329       0.03515739
C        0.00004000       4.91997000      13.87500000      -0.09136742       0.15542413      -0.02679142
C        6.39124000       1.23001000      13.87500000      -0.01296119       0.03942862       0.00117961
C        4.26084000       4.91997000      13.87500000      -0.02999140       0.02961091       0.00117664
C        7.10130000       2.46002000      13.87500000      -0.17710966      -0.00141033      -0.02680049
C       -3.55069000       6.14998000      13.87500000      -0.03807579       0.00852918       0.00117892
C        2.84050000       2.46002000      13.87500000       0.21047932      -0.00143550       0.03520788
C        0.71010000       6.14998000      13.87500000      -0.03753498      -0.01128471       0.00117714
C        0.71015000       1.23001000      13.87500000      -0.10403600      -0.17982950       0.03519046
C       -1.42025000       4.91997000      13.87500000       0.02860231       0.02996526       0.00117391
C        4.97095000       1.23001000      13.87500000       0.01141065       0.03990203       0.00117298
C        2.84055000       4.91997000      13.87500000       0.08983479       0.15591093      -0.02679002
C        2.84059000       0.00000000      13.87500000       0.08737596      -0.15439554      -0.02679958
C        0.71019000       3.68996000      13.87500000      -0.10645801       0.18124812       0.03523042
C        7.10139000       0.00000000      13.87500000       0.02616324      -0.02867461       0.00117947
C        4.97099000       3.68996000      13.87500000       0.00895354      -0.03849013       0.00117642
C        0.00000000       0.00000000      10.12500000      -0.08878229      -0.15406480       0.02680075
C       -2.13040000       3.68996000      10.12500000      -0.01053318      -0.03800100      -0.00118280
C        4.26080000       0.00000000      10.12500000      -0.02768162      -0.02816237      -0.00118177
C        2.13040000       3.68996000      10.12500000       0.10493218       0.18174546      -0.03519734
C        0.00000000       2.46002000      10.12500000      -0.20741388      -0.00142240      -0.03517914
C       -2.13040000       6.14998000      10.12500000       0.04086281       0.00850959      -0.00117879
C        4.26080000       2.46002000      10.12500000       0.18025617      -0.00142576       0.02679251
C        2.13040000       6.14998000      10.12500000       0.04060330      -0.01126273      -0.00117664
C        2.13044000       1.23001000      10.12500000       0.10247765      -0.18034329      -0.03515739
C        0.00004000       4.91997000      10.12500000      -0.09136742       0.15542413       0.02679142
C        6.39124000       1.23001000      10.12500000      -0.01296119       0.03942862      -0.00117961
C        4.26084000       4.91997000      10.12500000      -0.02999140       0.02961091      -0.00117664
C        7.10130000       2.46002000      10.12500000      -0.17710966      -0.00141033       0.02680049
C       -3.55069000       6.14998000      10.12500000      -0.03807579       0.00852918      -0.00117892
C        2.84050000       2.46002000      10.12500000       0.21047932      -0.00143550      -0.03520788
C        0.71010000       6.14998000      10.12500000      -0.03753498      -0.01128471      -0.00117714
C        0.71015000       1.23001000      10.12500000      -0.10403600      -0.17982950      -0.03519046
C       -1.42025000       4.91997000      10.12500000       0.02860231       0.02996526      -0.00117391
C        4.97095000       1.23001000      10.12500000       0.01141065       0.03990203      -0.00117298
C        2.84055000       4.91997000      10.12500000       0.08983479       0.15591093       0.02679002
C        2.84059000       0.00000000      10.12500000       0.08737596      -0.15439554       0.02679958
C        0.71019000       3.68996000      10.12500000      -0.10645801       0.18124812      -0.03523042
C        7.10139000       0.00000000      10.12500000       0.02616324      -0.02867461      -0.00117947
C        4.97099000       3.68996000      10.12500000       0.00895354      -0.03849013      -0.00117642
Li       1.42025000       2.46002000      12.00000000      -0.00001299      -0.00014312       0.00000000
49
Lattice="8.52159977 0.0 0.0 -4.260799885 7.379921881 0.0 0.0 0.0 24.0" Properties=species:S:1:pos:R:3:forces:R:3 energy=-447.9236348322935 stress="-0.07015685945708607 -4.7212090274157816e-09 6.509361442511647e-18 -4.7212090274157816e-09 -0.07015640156902297 4.282828827301478e-18 6.509361442511647e-18 4.282828827301478e-18 -0.00013745080765509114" free_energy=-447.9236348322935 pbc="T T T"
C        0.00000000       0.00000000      13.87308566      -0.08903491      -0.15450252       0.00461175
C       -2.13040000       3.68996000      13.87508449      -0.01073400      -0.03770979      -0.00814401
C        4.26080000       0.00000000      13.87508441      -0.02732958      -0.02819072      -0.00814425
C        2.13040000       3.68996000      13.87751410       0.10468015       0.18131018       0.02088991
C        0.00000000       2.46002000      13.87751280      -0.20691539      -0.00142004       0.02087931
C       -2.13040000       6.14998000      13.87508420       0.04071142       0.00819002      -0.00814521
C        4.26080000       2.46002000      13.87308625       0.18075853      -0.00142593       0.00461761
C        2.13040000       6.14998000      13.87508405       0.04045136      -0.01094193      -0.00813972
C        2.13044000       1.23001000      13.87751124       0.10223119      -0.17991298       0.02087218
C        0.00004000       4.91997000      13.87308633      -0.09161780       0.15585767       0.00462632
C        6.39124000       1.23001000      13.87508426      -0.01316293       0.03913727      -0.00814645
C        4.26084000       4.91997000      13.87508405      -0.02963744       0.02964009      -0.00814137
C        7.10130000       2.46002000      13.87308568      -0.17761456      -0.00141050       0.00461002
C       -3.55069000       6.14998000      13.87508421      -0.03792447       0.00820944      -0.00814420
C        2.84050000       2.46002000      13.87751485       0.20997851      -0.00143314       0.02085606
C        0.71010000       6.14998000      13.87508408      -0.03738312      -0.01096374      -0.00813889
C        0.71015000       1.23001000      13.87751360      -0.10378826      -0.17939934       0.02084682
C       -1.42025000       4.91997000      13.87508385       0.02824800       0.02999457      -0.00813956
C        4.97095000       1.23001000      13.87508378       0.01161291       0.03961037      -0.00814053
C        2.84055000       4.91997000      13.87308643       0.09008581       0.15634548       0.00461588
C        2.84059000       0.00000000      13.87308574       0.08762922      -0.15483429       0.00460114
C        0.71019000       3.68996000      13.87751646      -0.10620469       0.18081298       0.02086443
C        7.10139000       0.00000000      13.87508425       0.02581086      -0.02870306      -0.00814222
C        4.97099000       3.68996000      13.87508403       0.00915487      -0.03819860      -0.00813793
C        0.00000000       0.00000000      10.12691434      -0.08903491      -0.15450252      -0.00461175
C       -2.13040000       3.68996000      10.12491551      -0.01073400      -0.03770979       0.00814401
C        4.26080000       0.00000000      10.12491559      -0.02732958      -0.02819072       0.00814425
C        2.13040000       3.68996000      10.12248590       0.10468015       0.18131018      -0.02088991
C        0.00000000       2.46002000      10.12248720      -0.20691539      -0.00142004      -0.02087931
C       -2.13040000       6.14998000      10.12491580       0.04071142       0.00819002       0.00814521
C        4.26080000       2.46002000      10.12691375       0.18075853      -0.00142593      -0.00461761
C        2.13040000       6.14998000      10.12491595       0.04045136      -0.01094193       0.00813972
C        2.13044000       1.23001000      10.12248876       0.10223119      -0.17991298      -0.02087218
C        0.00004000       4.91997000      10.12691367      -0.09161780       0.15585767      -0.00462632
C        6.39124000       1.23001000      10.12491574      -0.01316293       0.03913727       0.00814645
C        4.26084000       4.91997000      10.12491595      -0.02963744       0.02964009       0.00814137
C        7.10130000       2.46002000      10.12691432      -0.17761456      -0.00141050      -0.00461002
C       -3.55069000       6.14998000      10.12491579      -0.03792447       0.00820944       0.00814420
C        2.84050000       2.46002000      10.12248515       0.20997851      -0.00143314      -0.02085606
C        0.71010000       6.14998000      10.12491592      -0.03738312      -0.01096374       0.00813889
C        0.71015000       1.23001000      10.12248640      -0.10378826      -0.17939934      -0.02084682
C       -1.42025000       4.91997000      10.12491615       0.02824800       0.02999457       0.00813956
C        4.97095000       1.23001000      10.12491622       0.01161291       0.03961037       0.00814053
C        2.84055000       4.91997000      10.12691357       0.09008581       0.15634548      -0.00461588
C        2.84059000       0.00000000      10.12691426       0.08762922      -0.15483429      -0.00460114
C        0.71019000       3.68996000      10.12248354      -0.10620469       0.18081298      -0.02086443
C        7.10139000       0.00000000      10.12491575       0.02581086      -0.02870306       0.00814222
C        4.97099000       3.68996000      10.12491597       0.00915487      -0.03819860       0.00813793
Li       1.42024907       2.46000978      12.00000000      -0.00001142      -0.00012302      -0.00000000
49
Lattice="8.52159977 0.0 0.0 -4.260799885 7.379921881 0.0 0.0 0.0 24.0" Properties=species:S:1:pos:R:3:forces:R:3 energy=-447.9251148764927 stress="-0.07018139297033767 -4.692094651218225e-09 1.227014105053603e-17 -4.692094651218225e-09 -0.07018093500024872 1.8315050641772687e-18 1.227014105053603e-17 1.8315050641772687e-18 -8.566959235628831e-05" free_energy=-447.9251148764927 pbc="T T T"
C        0.00000000       0.00000000      13.87446918      -0.08914926      -0.15470106      -0.00595064
C       -2.13040000       3.68996000      13.87264128      -0.01109721      -0.03746412      -0.00031883
C        4.26080000       0.00000000      13.87264114      -0.02693660      -0.02838282      -0.00033697
C        2.13040000       3.68996000      13.88378107       0.10446700       0.18094658       0.01216315
C        0.00000000       2.46002000      13.88377659      -0.20650891      -0.00141199       0.01218172
C       -2.13040000       6.14998000      13.87264064       0.04068273       0.00775176      -0.00033811
C        4.26080000       2.46002000      13.87447153       0.18097823      -0.00142665      -0.00594759
C        2.13040000       6.14998000      13.87264213       0.04042016      -0.01050127      -0.00032220
C        2.13044000       1.23001000      13.88377290       0.10203678      -0.17956582       0.01218403
C        0.00004000       4.91997000      13.87447422      -0.09172477       0.15604190      -0.00595899
C        6.39124000       1.23001000      13.87264032      -0.01352985       0.03889195      -0.00031816
C        4.26084000       4.91997000      13.87264164      -0.02923955       0.02983459      -0.00032018
C        7.10130000       2.46002000      13.87446868      -0.17783077      -0.00141122      -0.00589839
C       -3.55069000       6.14998000      13.87264095      -0.03789503       0.00777269      -0.00033259
C        2.84050000       2.46002000      13.88377167       0.20956899      -0.00142507       0.01235001
C        0.71010000       6.14998000      13.87264241      -0.03735113      -0.01052460      -0.00031684
C        0.71015000       1.23001000      13.88376765      -0.10359312      -0.17905616       0.01236329
C       -1.42025000       4.91997000      13.87264198       0.02785078       0.03018864      -0.00032056
C        4.97095000       1.23001000      13.87264162       0.01197910       0.03936487      -0.00033523
C        2.84055000       4.91997000      13.87447119       0.09018928       0.15652430      -0.00589143
C        2.84059000       0.00000000      13.87446608       0.08774013      -0.15502744      -0.00588320
C        0.71019000       3.68996000      13.88377579      -0.10599081       0.18045338       0.01234271
C        7.10139000       0.00000000      13.87264158       0.02541850      -0.02889474      -0.00033724
C        4.97099000       3.68996000      13.87264265       0.00951734      -0.03795275      -0.00033614
C        0.00000000       0.00000000      10.12553082      -0.08914926      -0.15470106       0.00595064
C       -2.13040000       3.68996000      10.12735872      -0.01109721      -0.03746412       0.00031883
C        4.26080000       0.00000000      10.12735886      -0.02693660      -0.02838282       0.00033697
C        2.13040000       3.68996000      10.11621893       0.10446700       0.18094658      -0.01216315
C        0.00000000       2.46002000      10.11622341      -0.20650891      -0.00141199      -0.01218172
C       -2.13040000       6.14998000      10.12735936       0.04068273       0.00775176       0.00033811
C        4.26080000       2.46002000      10.12552847       0.18097823      -0.00142665       0.00594759
C        2.13040000       6.14998000      10.12735787       0.04042016      -0.01050127       0.00032220
C        2.13044000       1.23001000      10.11622710       0.10203678      -0.17956582      -0.01218403
C        0.00004000       4.91997000      10.12552578      -0.09172477       0.15604190       0.00595899
C        6.39124000       1.23001000      10.12735968      -0.01352985       0.03889195       0.00031816
C        4.26084000       4.91997000      10.12735836      -0.02923955       0.02983459       0.00032018
C        7.10130000       2.46002000      10.12553132      -0.17783077      -0.00141122       0.00589839
C       -3.55069000       6.14998000      10.12735905      -0.03789503       0.00777269       0.00033259
C        2.84050000       2.46002000      10.11622833       0.20956899      -0.00142507      -0.01235001
C        0.71010000       6.14998000      10.12735759      -0.03735113      -0.01052460       0.00031684
C        0.71015000       1.23001000      10.11623235      -0.10359312      -0.17905616      -0.01236329
C       -1.42025000       4.91997000      10.12735802       0.02785078       0.03018864       0.00032056
C        4.97095000       1.23001000      10.12735838       0.01197910       0.03936487       0.00033523
C        2.84055000       4.91997000      10.12552881       0.09018928       0.15652430       0.00589143
C        2.84059000       0.00000000      10.12553392       0.08774013      -0.15502744       0.00588320
C        0.71019000       3.68996000      10.11622421      -0.10599081       0.18045338      -0.01234271
C        7.10139000       0.00000000      10.12735842       0.02541850      -0.02889474       0.00033724
C        4.97099000       3.68996000      10.12735735       0.00951734      -0.03795275       0.00033614
Li       1.42024565       2.45997287      12.00000000      -0.00000396      -0.00004989      -0.00000000
49
Lattice="8.52159977 0.0 0.0 -4.260799885 7.379921881 0.0 0.0 0.0 24.0" Properties=species:S:1:pos:R:3:forces:R:3 energy=-447.92527317508006 stress="-0.07018846190126282 -4.7207835120601455e-09 -4.357253255413588e-19 -4.7207835120601455e-09 -0.07018800523114048 8.18544795711632e-18 -4.357253255413588e-19 8.18544795711632e-18 -7.022805955580218e-05" free_energy=-447.92527317508006 pbc="T T T"
C        0.00000000       0.00000000      13.87362355      -0.08907110      -0.15456592       0.00971205
C       -2.13040000       3.68996000      13.87259597      -0.01120973      -0.03730226      -0.00466489
C        4.26080000       0.00000000      13.87259325      -0.02674056      -0.02839967      -0.00463227
C        2.13040000       3.68996000      13.88550956       0.10447058       0.18095378       0.00464803
C        0.00000000       2.46002000      13.88550772      -0.20651904      -0.00141010       0.00463843
C       -2.13040000       6.14998000      13.87259259       0.04059939       0.00757325      -0.00462998
C        4.26080000       2.46002000      13.87362633       0.18082048      -0.00142679       0.00969940
C        2.13040000       6.14998000      13.87259634       0.04033620      -0.01032275      -0.00465308
C        2.13044000       1.23001000      13.88550435       0.10204392      -0.17957544       0.00465733
C        0.00004000       4.91997000      13.87362740      -0.09164558       0.15590471       0.00973202
C        6.39124000       1.23001000      13.87259511      -0.01364321       0.03873018      -0.00467436
C        4.26084000       4.91997000      13.87259613      -0.02904286       0.02985168      -0.00466494
C        7.10130000       2.46002000      13.87363047      -0.17769274      -0.00141136       0.00955261
C       -3.55069000       6.14998000      13.87259369      -0.03781254       0.00759080      -0.00468658
C        2.84050000       2.46002000      13.88552671       0.20957431      -0.00142319       0.00415026
C        0.71010000       6.14998000      13.87259739      -0.03726802      -0.01034269      -0.00470967
C        0.71015000       1.23001000      13.88552458      -0.10359736      -0.17906239       0.00415317
C       -1.42025000       4.91997000      13.87259643       0.02765143       0.03020784      -0.00470280
C        4.97095000       1.23001000      13.87259399       0.01209564       0.03920229      -0.00467833
C        2.84055000       4.91997000      13.87363397       0.09011980       0.15640372       0.00952843
C        2.84059000       0.00000000      13.87363003       0.08767165      -0.15490889       0.00950857
C        0.71019000       3.68996000      13.88552979      -0.10599150       0.18045718       0.00414348
C        7.10139000       0.00000000      13.87259366       0.02521981      -0.02891370      -0.00467010
C        4.97099000       3.68996000      13.87259488       0.00963305      -0.03779008      -0.00466850
C        0.00000000       0.00000000      10.12637645      -0.08907110      -0.15456592      -0.00971205
C       -2.13040000       3.68996000      10.12740403      -0.01120973      -0.03730226       0.00466489
C        4.26080000       0.00000000      10.12740675      -0.02674056      -0.02839967       0.00463227
C        2.13040000       3.68996000      10.11449044       0.10447058       0.18095378      -0.00464803
C        0.00000000       2.46002000      10.11449228      -0.20651904      -0.00141010      -0.00463843
C       -2.13040000       6.14998000      10.12740741       0.04059939       0.00757325       0.00462998
C        4.26080000       2.46002000      10.12637367       0.18082048      -0.00142679      -0.00969940
C        2.13040000       6.14998000      10.12740366       0.04033620      -0.01032275       0.00465308
C        2.13044000       1.23001000      10.11449565       0.10204392      -0.17957544      -0.00465733
C        0.00004000       4.91997000      10.12637260      -0.09164558       0.15590471      -0.00973202
C        6.39124000       1.23001000      10.12740489      -0.01364321       0.03873018       0.00467436
C        4.26084000       4.91997000      10.12740387      -0.02904286       0.02985168       0.00466494
C        7.10130000       2.46002000      10.12636953      -0.17769274      -0.00141136      -0.00955261
C       -3.55069000       6.14998000      10.12740631      -0.03781254       0.00759080       0.00468658
C        2.84050000       2.46002000      10.11447329       0.20957431      -0.00142319      -0.00415026
C        0.71010000       6.14998000      10.12740261      -0.03726802      -0.01034269       0.00470967
C        0.71015000       1.23001000      10.11447542      -0.10359736      -0.17906239      -0.00415317
C       -1.42025000       4.91997000      10.12740357       0.02765143       0.03020784       0.00470280
C        4.97095000       1.23001000      10.12740601       0.01209564       0.03920229       0.00467833
C        2.84055000       4.91997000      10.12636603       0.09011980       0.15640372      -0.00952843
C        2.84059000       0.00000000      10.12636997       0.08767165      -0.15490889      -0.00950857
C        0.71019000       3.68996000      10.11447021      -0.10599150       0.18045718      -0.00414348
C        7.10139000       0.00000000      10.12740634       0.02521981      -0.02891370       0.00467010
C        4.97099000       3.68996000      10.12740512       0.00963305      -0.03779008       0.00466850
Li       1.42024508       2.45996578      12.00000000      -0.00000404      -0.00004037      -0.00000000
