49
Lattice="8.52159977 0.0 0.0 -4.260799885 7.379921881 0.0 0.0 0.0 24.0" Properties=species:S:1:pos:R:3:forces:R:3 energy=-447.01956665577126 stress="-0.06798186669431149 3.0756087419324114e-06 5.510790134546492e-08 3.0756087419324114e-06 -0.06798589389735062 3.725432978958166e-08 5.510790134546492e-08 3.725432978958166e-08 -0.007671278089547976" free_energy=-447.01956665577126 pbc="T T T"
C        0.00000000       0.00000000      13.67500000      -0.15678171      -0.27185669       0.18848093
C       -2.13040000       3.68996000      13.67500000       0.00621442      -0.01026423       0.03047203
C        4.26080000       0.00000000      13.67500000      -0.01203987       0.00020812       0.03047218
C        2.13040000       3.68996000      13.67500000       0.04792959       0.08302866       0.06044237
C        0.00000000       2.46002000      13.67500000      -0.15776086       0.27225729       0.18849452
C       -2.13040000       6.14998000      13.67500000       0.04732035      -0.08252604       0.06045621
C        4.26080000       2.46002000      13.67500000      -0.01280306       0.00021054       0.03047592
C        2.13040000       6.14998000      13.67500000       0.00536392       0.01079586       0.03047633
C        2.13044000       1.23001000      13.67500000       0.31467849      -0.00051698       0.18849891
C        0.00004000       4.91997000      13.67500000       0.00658415      -0.01095938       0.03047808
C        6.39124000       1.23001000      13.67500000      -0.09502971      -0.00051010       0.06045897
C        4.26084000       4.91997000      13.67500000       0.00673410       0.01012367       0.03047901
C        7.10130000       2.46002000      13.67500000      -0.15161707       0.03032821       0.04767169
C       -3.55069000       6.14998000      13.67500000       0.05210904      -0.15107507       0.04768663
C        2.84050000       2.46002000      13.67500000       0.10754241       0.11649428       0.04767828
C        0.71010000       6.14998000      13.67500000       0.00285532      -0.00139530       0.02102807
C        0.71015000       1.23001000      13.67500000      -0.00023360      -0.00000540       3.83142917
C       -1.42025000       4.91997000      13.67500000      -0.01956937       0.03361349       0.01796118
C        4.97095000       1.23001000      13.67500000       0.03865076       0.00001642       0.01796224
C        2.84055000       4.91997000      13.67500000      -0.01958082      -0.03359097       0.01796266
C        2.84059000       0.00000000      13.67500000       0.10212202      -0.11647882       0.04766489
C        0.71019000       3.68996000      13.67500000       0.04714599       0.15103562       0.04766854
C        7.10139000       0.00000000      13.67500000      -0.15716030      -0.03037403       0.04767613
C        4.97099000       3.68996000      13.67500000      -0.00268125       0.00142013       0.02101837
C        0.00000000       0.00000000      10.32500000      -0.15250751      -0.26538058      -0.22541259
C       -2.13040000       3.68996000      10.32500000       0.03069608       0.04135048      -0.03731818
C        4.26080000       0.00000000      10.32500000       0.02121114       0.04657925      -0.03732451
C        2.13040000       3.68996000      10.32500000       0.09845715       0.16979715      -0.00578466
C        0.00000000       2.46002000      10.32500000      -0.15171909       0.26405502      -0.22541272
C       -2.13040000       6.14998000      10.32500000       0.09938532      -0.17108141      -0.00578355
C        4.26080000       2.46002000      10.32500000       0.02205349      -0.04795142      -0.03731725
C        2.13040000       6.14998000      10.32500000       0.03122529      -0.04258905      -0.03731926
C        2.13044000       1.23001000      10.32500000       0.30643547      -0.00147160      -0.22541487
C        0.00004000       4.91997000      10.32500000      -0.05090099      -0.00657325      -0.03731186
C        6.39124000       1.23001000      10.32500000      -0.19622331      -0.00136179      -0.00577441
C        4.26084000       4.91997000      10.32500000      -0.05104096       0.00395159      -0.03731262
C        7.81145000       1.23001000      10.32500000      -0.29786610      -0.00058542      -0.21229582
C       -2.84055000       4.91997000      10.32500000       0.05240877       0.00470518      -0.03420797
C        3.55065000       1.23001000      10.32500000       0.19808931      -0.00049743      -0.00326130
C        1.42025000       4.91997000      10.32500000       0.05242159      -0.00572871      -0.03420908
C        1.42030000       0.00000000      10.32500000       0.14914641      -0.25900747      -0.21229004
C       -0.71010000       3.68996000      10.32500000      -0.09878669       0.17050703      -0.00325154
C        5.68109000       0.00000000      10.32500000      -0.02086467       0.04696192      -0.03420738
C        3.55069000       3.68996000      10.32500000      -0.02999071       0.04174762      -0.03420994
C        1.42034000       2.45995000      10.32500000       0.14643921       0.26225788      -0.21232221
C       -0.71006000       6.14991000      10.32500000      -0.03297709      -0.03855585      -0.03421464
C        5.68114000       2.45995000      10.32500000      -0.02384974      -0.04381700      -0.03422214
C        3.55074000       6.14991000      10.32500000      -0.10119977      -0.16729928      -0.00325853
Li       0.71015000       1.23001000      12.00000000      -0.00003557       0.00000787      -3.37365626
49
Lattice="8.52159977 0.0 0.0 -4.260799885 7.379921881 0.0 0.0 0.0 24.0" Properties=species:S:1:pos:R:3:forces:R:3 energy=-447.42008072351075 stress="-0.06801843241670201 3.0293554764999676e-06 7.76303110810003e-08 3.0293554764999676e-06 -0.0680225075927142 3.97309320790481e-08 7.76303110810003e-08 3.97309320790481e-08 -0.005229779433865036" free_energy=-447.42008072351075 pbc="T T T"
C        0.00000000       0.00000000      13.68105497      -0.11694634      -0.20284943       0.74318862
C       -2.13040000       3.68996000      13.67597892       0.00951519      -0.00630246      -0.02820120
C        4.26080000       0.00000000      13.67597892      -0.01025864       0.00504698      -0.02820089
C        2.13040000       3.68996000      13.67694172       0.04156611       0.07200743       0.09413513
C        0.00000000       2.46002000      13.68105540      -0.11787380       0.20321738       0.74317385
C       -2.13040000       6.14998000      13.67694216       0.04096272      -0.07150332       0.09413455
C        4.26080000       2.46002000      13.67597904      -0.01103226      -0.00462949      -0.02819997
C        2.13040000       6.14998000      13.67597905       0.00866959       0.00683486      -0.02819762
C        2.13044000       1.23001000      13.68105555       0.23493463      -0.00049404       0.74316478
C        0.00004000       4.91997000      13.67597911       0.00150665      -0.01184565      -0.02819841
C        6.39124000       1.23001000      13.67694225      -0.08230530      -0.00050329       0.09413562
C        4.26084000       4.91997000      13.67597914       0.00165092       0.01100600      -0.02819568
C        7.10130000       2.46002000      13.67653146      -0.14767952       0.03770145       0.01479052
C       -3.55069000       6.14998000      13.67653194       0.04370528      -0.15131505       0.01477337
C        2.84050000       2.46002000      13.67653167       0.11196911       0.10937458       0.01476623
C        0.71010000       6.14998000      13.67567553       0.00284925      -0.00139298       0.02755863
C        0.71015000       1.23001000      13.79808503      -0.00021865       0.00000654      -0.16451661
C       -1.42025000       4.91997000      13.67557700      -0.01515794       0.02597569       0.03969702
C        4.97095000       1.23001000      13.67557704       0.02983083       0.00001775       0.03969800
C        2.84055000       4.91997000      13.67557705      -0.01516837      -0.02594886       0.03969470
C        2.84059000       0.00000000      13.67653124       0.10653924      -0.10937817       0.01478397
C        0.71019000       3.68996000      13.67653136       0.03876921       0.15131030       0.01476165
C        7.10139000       0.00000000      13.67653160      -0.15316062      -0.03777291       0.01476632
C        4.97099000       3.68996000      13.67567522      -0.00267628       0.00141680       0.02755258
C        0.00000000       0.00000000      10.31775860      -0.18975866      -0.32989304      -0.28125702
C       -2.13040000       3.68996000      10.32380115       0.03864648       0.03802860      -0.03015604
C        4.26080000       0.00000000      10.32380095       0.01436028       0.05180104      -0.03015702
C        2.13040000       3.68996000      10.32481417       0.10020452       0.17282524      -0.03256337
C        0.00000000       2.46002000      10.31775860      -0.18897123       0.32856064      -0.28127662
C       -2.13040000       6.14998000      10.32481420       0.10114084      -0.17411876      -0.03255163
C        4.26080000       2.46002000      10.32380118       0.01520196      -0.05317333      -0.03015614
C        2.13040000       6.14998000      10.32380112       0.03917992      -0.03927230      -0.03015349
C        2.13044000       1.23001000      10.31775853       0.38092416      -0.00146334      -0.28125786
C        0.00004000       4.91997000      10.32380135      -0.05200359      -0.01511750      -0.03014964
C        6.39124000       1.23001000      10.32481450      -0.19970646      -0.00137156      -0.03254683
C        4.26084000       4.91997000      10.32380133      -0.05213564       0.01248623      -0.03015051
C        7.81145000       1.23001000      10.31817998      -0.37186030      -0.00058698      -0.28358631
C       -2.84055000       4.91997000      10.32390107       0.05400400       0.01401561      -0.02967889
C        3.55065000       1.23001000      10.32489523       0.20179542      -0.00049715      -0.03483204
C        1.42025000       4.91997000      10.32390103       0.05401515      -0.01504221      -0.02967881
C        1.42030000       0.00000000      10.31818016       0.18614838      -0.32307159      -0.28359233
C       -0.71010000       3.68996000      10.32489554      -0.10064827       0.17372959      -0.03481789
C        5.68109000       0.00000000      10.32390108      -0.01359640       0.05299909      -0.02967917
C        3.55069000       3.68996000      10.32390100      -0.03884720       0.03847352      -0.02967990
C        1.42034000       2.45995000      10.31817913       0.18345949       0.32632957      -0.28361384
C       -0.71006000       6.14991000      10.32390085      -0.04184473      -0.03527753      -0.02968484
C        5.68114000       2.45995000      10.32390061      -0.01658928      -0.04984058      -0.02968726
C        3.55074000       6.14991000      10.32489532      -0.10307169      -0.17050603      -0.03483115
Li       0.71014886       1.23001025      11.89162097      -0.00003816       0.00000268      -0.18532657
49
Lattice="8.52159977 0.0 0.0 -4.260799885 7.379921881 0.0 0.0 0.0 24.0" Properties=species:S:1:pos:R:3:forces:R:3 energy=-447.51414213439887 stress="-0.06824853090018694 3.0206115288137647e-06 6.738008260257412e-08 3.0206115288137647e-06 -0.06825258350056616 4.4553737105225866e-08 6.738008260257412e-08 4.4553737105225866e-08 -0.00480175721686043" free_energy=-447.51414213439887 pbc="T T T"
C        0.00000000       0.00000000      13.73486844      -0.14931195      -0.25890465      -0.04468572
C       -2.13040000       3.68996000      13.67408233       0.01038764      -0.00415709       0.00617374
C        4.26080000       0.00000000      13.67408236      -0.00883614       0.00687473       0.00617430
C        2.13040000       3.68996000      13.68389929       0.04885094       0.08462474      -0.01051237
C        0.00000000       2.46002000      13.73486787      -0.15022618       0.25926813      -0.04481295
C       -2.13040000       6.14998000      13.68389975       0.04825480      -0.08411858      -0.01050430
C        4.26080000       2.46002000      13.67408256      -0.00961278      -0.00645862       0.00617350
C        2.13040000       6.14998000      13.67408275       0.00953848       0.00468545       0.00617204
C        2.13044000       1.23001000      13.73486738       0.29965210      -0.00048536      -0.04480186
C        0.00004000       4.91997000      13.67408275      -0.00078727      -0.01152998       0.00617230
C        6.39124000       1.23001000      13.68389993      -0.09687676      -0.00049391      -0.01050440
C        4.26084000       4.91997000      13.67408298      -0.00064426       0.01068488       0.00617156
C        7.10130000       2.46002000      13.67777220      -0.12309485       0.03546509       0.31494206
C       -3.55069000       6.14998000      13.67777151       0.03333715      -0.12889240       0.31488200
C        2.84050000       2.46002000      13.67777070       0.09773717       0.08919121       0.31489800
C        0.71010000       6.14998000      13.67772529       0.00284737      -0.00139030      -0.09516169
C        0.71015000       1.23001000      13.80114416      -0.00021522       0.00000861       0.54261991
C       -1.42025000       4.91997000      13.67848193      -0.01230266       0.02102671      -0.01431404
C        4.97095000       1.23001000      13.67848204       0.02411713       0.00001631      -0.01431614
C        2.84055000       4.91997000      13.67848182      -0.01231300      -0.02100318      -0.01430715
C        2.84059000       0.00000000      13.67777148       0.09231057      -0.08920249       0.31493284
C        0.71019000       3.68996000      13.67777002       0.02840712       0.12889280       0.31490562
C        7.10139000       0.00000000      13.67777063      -0.12855501      -0.03554078       0.31487687
C        4.97099000       3.68996000      13.67772450      -0.00267268       0.00141711      -0.09516243
C        0.00000000       0.00000000      10.29679748      -0.19750531      -0.34331019      -0.23316013
C       -2.13040000       3.68996000      10.32150289       0.03820522       0.03693582      -0.01549863
C        4.26080000       0.00000000      10.32150260       0.01363535       0.05087239      -0.01550284
C        2.13040000       3.68996000      10.32246585       0.10002577       0.17251571      -0.10070653
C        0.00000000       2.46002000      10.29679608      -0.19671607       0.34197787      -0.23317446
C       -2.13040000       6.14998000      10.32246673       0.10096303      -0.17381169      -0.10068827
C        4.26080000       2.46002000      10.32150292       0.01447698      -0.05224373      -0.01550588
C        2.13040000       6.14998000      10.32150304       0.03873999      -0.03818035      -0.01550006
C        2.13044000       1.23001000      10.29679734       0.39641188      -0.00146282      -0.23318086
C        0.00004000       4.91997000      10.32150358      -0.05083778      -0.01528166      -0.01549399
C        6.39124000       1.23001000      10.32246740      -0.19935091      -0.00137225      -0.10068703
C        4.26084000       4.91997000      10.32150349      -0.05096847       0.01265056      -0.01549910
C        7.81145000       1.23001000      10.29710319      -0.38737282      -0.00058957      -0.23697228
C       -2.84055000       4.91997000      10.32164891       0.05372510       0.01454527      -0.01615347
C        3.55065000       1.23001000      10.32239462       0.20016932      -0.00049724      -0.10053210
C        1.42025000       4.91997000      10.32164888       0.05373603      -0.01557348      -0.01616121
C        1.42030000       0.00000000      10.29710296       0.19390576      -0.33649584      -0.23696356
C       -0.71010000       3.68996000      10.32239598      -0.09983632       0.17232431      -0.10054233
C        5.68109000       0.00000000      10.32164892      -0.01299671       0.05302359      -0.01615215
C        3.55069000       3.68996000      10.32164877      -0.03916704       0.03796772      -0.01615659
C        1.42034000       2.45995000      10.29710027       0.19121769       0.33975780      -0.23696733
C       -0.71006000       6.14991000      10.32164825      -0.04216461      -0.03477153      -0.01615647
C        5.68114000       2.45995000      10.32164781      -0.01598981      -0.04986452      -0.01615271
C        3.55074000       6.14991000      10.32239478      -0.10226312      -0.16910011      -0.10054696
Li       0.71014599       1.23001047      11.86534255      -0.00003489       0.00000549       0.13404321
49
Lattice="8.52159977 0.0 0.0 -4.260799885 7.379921881 0.0 0.0 0.0 24.0" Properties=species:S:1:pos:R:3:forces:R:3 energy=-447.64217103410056 stress="-0.06792388581769915 2.9844785135652995e-06 5.172288869001376e-08 2.9844785135652995e-06 -0.067927871375574 4.3071387591540576e-08 5.172288869001376e-08 4.3071387591540576e-08 -0.00315880571455318" free_energy=-447.64217103410056 pbc="T T T"
C        0.00000000       0.00000000      13.79114818      -0.12287253      -0.21311215       0.30271587
C       -2.13040000       3.68996000      13.67289944       0.03720929      -0.03052131       0.16994450
C        4.26080000       0.00000000      13.67289960      -0.04507517       0.01692050       0.16993011
C        2.13040000       3.68996000      13.69035144       0.03629105       0.06287198       0.40926677
C        0.00000000       2.46002000      13.79112428      -0.12375239       0.21341200       0.30296607
C       -2.13040000       6.14998000      13.69035331       0.03569552      -0.06236642       0.40935021
C        4.26080000       2.46002000      13.67289975      -0.04584743      -0.01649726       0.16997813
C        2.13040000       6.14998000      13.67289988       0.03634584       0.03104136       0.16989073
C        2.13044000       1.23001000      13.79112496       0.24670350      -0.00048756       0.30293890
C        0.00004000       4.91997000      13.67289988       0.00863642      -0.04792986       0.16998488
C        6.39124000       1.23001000      13.69035357      -0.07175791      -0.00049058       0.40935185
C        4.26084000       4.91997000      13.67290021       0.00877868       0.04708133       0.16989109
C        7.10130000       2.46002000      13.73407729      -0.14542547       0.04776500      -0.16671719
C       -3.55069000       6.14998000      13.73406476       0.03384013      -0.15435468      -0.16660439
C        2.84050000       2.46002000      13.73406609       0.11956150       0.10237561      -0.16674388
C        0.71010000       6.14998000      13.66359864       0.00286947      -0.00139952      -0.05095614
C        0.71015000       1.23001000      13.89925019      -0.00019570       0.00003750      -0.47081758
C       -1.42025000       4.91997000      13.67944801      -0.01390628       0.02379899      -0.10920191
C        4.97095000       1.23001000      13.67944784       0.02732013       0.00001413      -0.10919881
C        2.84055000       4.91997000      13.67944891      -0.01391815      -0.02378518      -0.10920550
C        2.84059000       0.00000000      13.73407438       0.11412222      -0.10238020      -0.16669801
C        0.71019000       3.68996000      13.73406630       0.02891696       0.15439152      -0.16674907
C        7.10139000       0.00000000      13.73406233      -0.15085573      -0.04783398      -0.16659592
C        4.97099000       3.68996000      13.66359717      -0.00269204       0.00143123      -0.05095046
C        0.00000000       0.00000000      10.23125482      -0.19413418      -0.33747023      -0.07144530
C       -2.13040000       3.68996000      10.31606892       0.04586764       0.03188548      -0.02338769
C        4.26080000       0.00000000      10.31606778       0.00543506       0.05498196      -0.02337169
C        2.13040000       3.68996000      10.30213848       0.08503462       0.14655497      -0.15755198
C        0.00000000       2.46002000      10.23124925      -0.19335580       0.33614670      -0.07143577
C       -2.13040000       6.14998000      10.30214354       0.08597262      -0.14784359      -0.15753685
C        4.26080000       2.46002000      10.31606768       0.00628383      -0.05635431      -0.02337469
C        2.13040000       6.14998000      10.31606903       0.04641009      -0.03313627      -0.02341068
C        2.13044000       1.23001000      10.23125099       0.38964971      -0.00144360      -0.07144076
C        0.00004000       4.91997000      10.31607099      -0.05029474      -0.02444870      -0.02339694
C        6.39124000       1.23001000      10.30214488      -0.16936879      -0.00137656      -0.15757657
C        4.26084000       4.91997000      10.31606993      -0.05042780       0.02180789      -0.02337709
C        7.81145000       1.23001000      10.23075917      -0.38340114      -0.00060442      -0.06106355
C       -2.84055000       4.91997000      10.31615582       0.05299899       0.02283926      -0.02362541
C        3.55065000       1.23001000      10.30191633       0.17156386      -0.00050033      -0.15247837
C        1.42025000       4.91997000      10.31615444       0.05301277      -0.02388010      -0.02364678
C        1.42030000       0.00000000      10.23075998       0.19192863      -0.33303985      -0.06105392
C       -0.71010000       3.68996000      10.30191716      -0.08552737       0.14754940      -0.15248176
C        5.68109000       0.00000000      10.31615603      -0.00544579       0.05655012      -0.02363012
C        3.55069000       3.68996000      10.31615504      -0.04599287       0.03319625      -0.02364901
C        1.42034000       2.45995000      10.23075465       0.18924388       0.33628754      -0.06104269
C       -0.71006000       6.14991000      10.31615410      -0.04899904      -0.02998204      -0.02363465
C        5.68114000       2.45995000      10.31615407      -0.00845249      -0.05337969      -0.02359978
C        3.55074000       6.14991000      10.30191399      -0.08797335      -0.14432903      -0.15247713
Li       0.71013651       1.23001169      11.85739648      -0.00002030       0.00000672       0.35391891
49
Lattice="8.52159977 0.0 0.0 -4.260799885 7.379921881 0.0 0.0 0.0 24.0" Properties=species:S:1:pos:R:3:forces:R:3 energy=-447.6986230512202 stress="-0.06760888779566267 2.985226492951115e-06 4.0008431467140145e-08 2.985226492951115e-06 -0.06761279203199069 4.627947190138299e-08 4.0008431467140145e-08 4.627947190138299e-08 -0.002396118993112173" free_energy=-447.6986230512202 pbc="T T T"
C        0.00000000       0.00000000      13.84542595      -0.16227737      -0.28136098      -0.10094641
C       -2.13040000       3.68996000      13.68370356       0.04558640      -0.04089587      -0.02099662
C        4.26080000       0.00000000      13.68370281      -0.05824796       0.01898801      -0.02099927
C        2.13040000       3.68996000      13.72195092       0.04585859       0.07944472       0.11234376
C        0.00000000       2.46002000      13.84540499      -0.16314064       0.28166893      -0.10086057
C       -2.13040000       6.14998000      13.72195930       0.04526107      -0.07894114       0.11241210
C        4.26080000       2.46002000      13.68370620      -0.05901080      -0.01856361      -0.02102392
C        2.13040000       6.14998000      13.68370037       0.04472102       0.04141695      -0.02101465
C        2.13044000       1.23001000      13.84540454       0.32550987      -0.00047063      -0.10086796
C        0.00004000       4.91997000      13.68370673       0.01342860      -0.06036225      -0.02102045
C        6.39124000       1.23001000      13.72195973      -0.09089628      -0.00049348       0.11241224
C        4.26084000       4.91997000      13.68370078       0.01357820       0.05952381      -0.02101212
C        7.10130000       2.46002000      13.75656583      -0.10964388       0.06278942       0.01934497
C       -3.55069000       6.14998000      13.75655384       0.00293876      -0.13088149       0.01934632
C        2.84050000       2.46002000      13.75654700       0.11467769       0.06386342       0.01932537
C        0.71010000       6.14998000      13.65167016       0.00288730      -0.00140616       0.21943709
C        0.71015000       1.23001000      13.92621680      -0.00020120       0.00002307       0.01422940
C       -1.42025000       4.91997000      13.67262916      -0.02277348       0.03914691       0.18512103
C        4.97095000       1.23001000      13.67262904       0.04504500       0.00000938       0.18511476
C        2.84055000       4.91997000      13.67263042      -0.02277722      -0.03912985       0.18501360
C        2.84059000       0.00000000      13.75656291       0.10924087      -0.06387762       0.01934775
C        0.71019000       3.68996000      13.75654740      -0.00199163       0.13090622       0.01933139
C        7.10139000       0.00000000      13.75655106      -0.11507549      -0.06285766       0.01935918
C        4.97099000       3.68996000      13.65166867      -0.00270692       0.00144269       0.21944579
C        0.00000000       0.00000000      10.18708793      -0.19356166      -0.33648258       0.01817151
C       -2.13040000       3.68996000      10.31122394       0.05914875       0.02976702      -0.05908521
C        4.26080000       0.00000000      10.31122337      -0.00303579       0.06542218      -0.05908071
C        2.13040000       3.68996000      10.27926755       0.07652148       0.13181260      -0.09577416
C        0.00000000       2.46002000      10.18708051      -0.19279480       0.33516705       0.01819601
C       -2.13040000       6.14998000      10.27927614       0.07745473      -0.13308752      -0.09575905
C        4.26080000       2.46002000      10.31122282      -0.00218060      -0.06679873      -0.05907466
C        2.13040000       6.14998000      10.31122247       0.05969582      -0.03102462      -0.05912413
C        2.13044000       1.23001000      10.18708220       0.38850761      -0.00143386       0.01818551
C        0.00004000       4.91997000      10.31122621      -0.05509861      -0.03701618      -0.05911405
C        6.39124000       1.23001000      10.27927519      -0.15234239      -0.00137817      -0.09579873
C        4.26084000       4.91997000      10.31122591      -0.05523666       0.03436530      -0.05907972
C        7.81145000       1.23001000      10.18681483      -0.38150004      -0.00061382       0.02435484
C       -2.84055000       4.91997000      10.31125926       0.05751557       0.03447020      -0.05759548
C        3.55065000       1.23001000      10.27929858       0.15190552      -0.00050394      -0.09496525
C        1.42025000       4.91997000      10.31125563       0.05753121      -0.03552144      -0.05762740
C        1.42030000       0.00000000      10.18681691       0.19099134      -0.33139664       0.02437376
C       -0.71010000       3.68996000      10.27929886      -0.07569192       0.13052251      -0.09497600
C        5.68109000       0.00000000      10.31125928       0.00237159       0.06628423      -0.05762447
C        3.55069000       3.68996000      10.31125650      -0.05832847       0.03129594      -0.05761348
C        1.42034000       2.45995000      10.18681077       0.18829651       0.33463118       0.02437990
C       -0.71006000       6.14991000      10.31125628      -0.06134096      -0.02806113      -0.05760891
C        5.68114000       2.45995000      10.31125886      -0.00064994      -0.06310463      -0.05757833
C        3.55074000       6.14991000      10.27929483      -0.07815306      -0.12730643      -0.09497468
Li       0.71012945       1.23001288      11.87660701      -0.00001572       0.00000871       0.11195012
49
Lattice="8.52159977 0.0 0.0 -4.260799885 7.379921881 0.0 0.0 0.0 24.0" Properties=species:S:1:pos:R:3:forces:R:3 energy=-447.72375051571214 stress="-0.0677544017256584 2.9759671631112776e-06 3.995530491694625e-08 2.9759671631112776e-06 -0.06775827458633842 3.9251109409024855e-08 3.995530491694625e-08 3.9251109409024855e-08 -0.0020438106967128546" free_energy=-447.72375051571214 pbc="T T T"
C        0.00000000       0.00000000      13.85303088      -0.15972928      -0.27695290      -0.07028021
C       -2.13040000       3.68996000      13.68509608       0.06011102      -0.05272445       0.22916780
C        4.26080000       0.00000000      13.68509462      -0.07575399       0.02565178       0.22916714
C        2.13040000       3.68996000      13.74935638       0.05377015       0.09314724      -0.02042805
C        0.00000000       2.46002000      13.85302259      -0.16061041       0.27730059      -0.07037937
C       -2.13040000       6.14998000      13.74937647       0.05316920      -0.09264925      -0.02038400
C        4.26080000       2.46002000      13.68509596      -0.07650423      -0.02522753       0.22916429
C        2.13040000       6.14998000      13.68508906       0.05923882       0.05324871       0.22917243
C        2.13044000       1.23001000      13.85302071       0.32045554      -0.00046133      -0.07037697
C        0.00004000       4.91997000      13.68509712       0.01640525      -0.07884482       0.22915729
C        6.39124000       1.23001000      13.74937698      -0.10672361      -0.00049958      -0.02038367
C        4.26084000       4.91997000      13.68508984       0.01656499       0.07801167       0.22916523
C        7.10130000       2.46002000      13.76793091      -0.11228671       0.07466327       0.00314988
C       -3.55069000       6.14998000      13.76791930      -0.00600926      -0.13912301       0.00306963
C        2.84050000       2.46002000      13.76790647       0.12625364       0.06022007       0.00311681
C        0.71010000       6.14998000      13.67648702       0.00288663      -0.00140251      -0.09619673
C        0.71015000       1.23001000      13.93864073      -0.00020156       0.00001398       0.03031390
C       -1.42025000       4.91997000      13.69482989      -0.02320846       0.03989418      -0.00070435