53
Lattice="8.869700432 0.0 0.0 -4.434850216 7.681385898 0.0 0.0 0.0 24.0" Properties=species:S:1:pos:R:3:forces:R:3 energy=-485.08999857664656 stress="-0.06981145170460001 3.932983932225576e-06 -1.0638946716678298e-17 3.932983932225576e-06 -0.0698113818656368 -9.492270709336736e-18 -1.0638946716678298e-17 -9.492270709336736e-18 -0.00014768014837309386" free_energy=-485.08999857664656 pbc="T T T"
C        0.00000000       0.00000000      13.87500000      -0.03435709      -0.17742273      -0.02658248
C       -0.68230000       2.36349000      13.87500000      -0.20129704      -0.05566983       0.03497521
C       -1.36451000       4.72697000      13.87500000      -0.14066920       0.11852634      -0.02657760
C       -2.04686000       7.09053000      13.87500000       0.01002297       0.00855041       0.00253266
C        1.70569000       1.77263000      13.87500000       0.14816223      -0.14424580       0.03496496
C        1.02347000       4.13612000      13.87500000       0.04864072       0.20378496       0.03494460
C        0.34117000       6.49960000      13.87500000       0.02693832      -0.01597249       0.00215465
C        4.09368000       1.18178000      13.87500000      -0.02919245      -0.01796611       0.00214540
C        3.41138000       3.54527000      13.87500000       0.17402344       0.06063144      -0.02657579
C        2.72916000       5.90875000      13.87500000      -0.01462932       0.00522311       0.00253851
C        6.48171000       0.59085000      13.87500000      -0.00060964       0.03569579       0.00214987
C        5.79936000       2.95441000      13.87500000       0.00750807      -0.01543799       0.00253707
C        5.11715000       5.31790000      13.87500000       0.00009603      -0.00049219      -0.00700767
C       -3.41146000       6.69663000      13.87500000      -0.02690467       0.01629332       0.00215418
C        0.34108000       1.37873000      13.87500000      -0.04818441      -0.20365409       0.03494230
C       -0.34113000       3.74222000      13.87500000      -0.14832804       0.14440605       0.03496563
C       -1.02343000       6.10570000      13.87500000      -0.01000872      -0.00837847       0.00253358
C        2.72907000       0.78788000      13.87500000       0.14053991      -0.11867811      -0.02657912
C        2.04686000       3.15137000      13.87500000       0.20106408       0.05521562       0.03497412
C        1.36456000       5.51485000      13.87500000       0.03426361       0.17729993      -0.02658166
C        5.11711000       0.19695000      13.87500000      -0.00013545       0.00042055      -0.00700800
C        4.43489000       2.56044000      13.87500000      -0.00722246       0.01537429       0.00253738
C        3.75255000       4.92400000      13.87500000       0.00073380      -0.03579729       0.00214901
C        3.07025000       7.28748000      13.87500000       0.01462321      -0.00509422       0.00253791
C        6.82288000       1.96958000      13.87500000      -0.17420929      -0.06045741      -0.02657549
C        6.14058000       4.33307000      13.87500000       0.02912822       0.01785105       0.00214556
C        0.00000000       0.00000000      10.12500000      -0.03435709      -0.17742273       0.02658248
C       -0.68230000       2.36349000      10.12500000      -0.20129704      -0.05566983      -0.03497521
C       -1.36451000       4.72697000      10.12500000      -0.14066920       0.11852634       0.02657760
C       -2.04686000       7.09053000      10.12500000       0.01002297       0.00855041      -0.00253266
C        1.70569000       1.77263000      10.12500000       0.14816223      -0.14424580      -0.03496496
C        1.02347000       4.13612000      10.12500000       0.04864072       0.20378496      -0.03494460
C        0.34117000       6.49960000      10.12500000       0.02693832      -0.01597249      -0.00215465
C        4.09368000       1.18178000      10.12500000      -0.02919245      -0.01796611      -0.00214540
C        3.41138000       3.54527000      10.12500000       0.17402344       0.06063144       0.02657579
C        2.72916000       5.90875000      10.12500000      -0.01462932       0.00522311      -0.00253851
C        6.48171000       0.59085000      10.12500000      -0.00060964       0.03569579      -0.00214987
C        5.79936000       2.95441000      10.12500000       0.00750807      -0.01543799      -0.00253707
C        5.11715000       5.31790000      10.12500000       0.00009603      -0.00049219       0.00700767
C       -3.41146000       6.69663000      10.12500000      -0.02690467       0.01629332      -0.00215418
C        0.34108000       1.37873000      10.12500000      -0.04818441      -0.20365409      -0.03494230
C       -0.34113000       3.74222000      10.12500000      -0.14832804       0.14440605      -0.03496563
C       -1.02343000       6.10570000      10.12500000      -0.01000872      -0.00837847      -0.00253358
C        2.72907000       0.78788000      10.12500000       0.14053991      -0.11867811       0.02657912
C        2.04686000       3.15137000      10.12500000       0.20106408       0.05521562      -0.03497412
C        1.36456000       5.51485000      10.12500000       0.03426361       0.17729993       0.02658166
C        5.11711000       0.19695000      10.12500000      -0.00013545       0.00042055       0.00700800
C        4.43489000       2.56044000      10.12500000      -0.00722246       0.01537429      -0.00253738
C        3.75255000       4.92400000      10.12500000       0.00073380      -0.03579729      -0.00214901
C        3.07025000       7.28748000      10.12500000       0.01462321      -0.00509422      -0.00253791
C        6.82288000       1.96958000      10.12500000      -0.17420929      -0.06045741       0.02657549
C        6.14058000       4.33307000      10.12500000       0.02912822       0.01785105      -0.00214556
Li       0.68228000       2.75743000      12.00000000       0.00000631      -0.00001219       0.00000000
53
Lattice="8.869700432 0.0 0.0 -4.434850216 7.681385898 0.0 0.0 0.0 24.0" Properties=species:S:1:pos:R:3:forces:R:3 energy=-485.0910396709474 stress="-0.06982751196522348 3.929772887988945e-06 4.151957517037317e-18 3.929772887988945e-06 -0.06982744740933204 -1.2019279445154788e-18 4.151957517037317e-18 -1.2019279445154788e-18 -0.00012669350552084525" free_energy=-485.0910396709474 pbc="T T T"
C        0.00000000       0.00000000      13.87310125      -0.03440909      -0.17795387       0.00743141
C       -0.68230000       2.36349000      13.87749823      -0.20076912      -0.05552109       0.02081235
C       -1.36451000       4.72697000      13.87310160      -0.14110176       0.11883599       0.00743513
C       -2.04686000       7.09053000      13.87518090       0.00996142       0.00818932      -0.00780992
C        1.70569000       1.77263000      13.87749750       0.14777011      -0.14386453       0.02081459
C        1.02347000       4.13612000      13.87749604       0.04850825       0.20325309       0.02081478
C        0.34117000       6.49960000      13.87515390       0.02673793      -0.01569955      -0.01263395
C        4.09368000       1.18178000      13.87515324      -0.02885547      -0.01792891      -0.01263625
C        3.41138000       3.54527000      13.87310173       0.17450755       0.06085122       0.00744511
C        2.72916000       5.90875000      13.87518132      -0.01428612       0.00534981      -0.00780750
C        6.48171000       0.59085000      13.87515356      -0.00074624       0.03538501      -0.01263604
C        5.79936000       2.95441000      13.87518122       0.00722605      -0.01520400      -0.00781151
C        5.11715000       5.31790000      13.87449945       0.00009604      -0.00049204       0.00414669
C       -3.41146000       6.69663000      13.87515387      -0.02670436       0.01602042      -0.01263438
C        0.34108000       1.37873000      13.87749588      -0.04805250      -0.20312273       0.02081523
C       -0.34113000       3.74222000      13.87749755      -0.14793529       0.14402430       0.02081594
C       -1.02343000       6.10570000      13.87518097      -0.00994713      -0.00801725      -0.00780924
C        2.72907000       0.78788000      13.87310149       0.14097268      -0.11898802       0.00743448
C        2.04686000       3.15137000      13.87749815       0.20053627       0.05506743       0.02081328
C        1.36456000       5.51485000      13.87310131       0.03431559       0.17783075       0.00743280
C        5.11711000       0.19695000      13.87449943      -0.00013540       0.00042040       0.00414703
C        4.43489000       2.56044000      13.87518124      -0.00694048       0.01514037      -0.00781149
C        3.75255000       4.92400000      13.87515350       0.00087031      -0.03548651      -0.01263604
C        3.07025000       7.28748000      13.87518128       0.01428011      -0.00522087      -0.00780741
C        6.82288000       1.96958000      13.87310175      -0.17469317      -0.06067727       0.00744617
C        6.14058000       4.33307000      13.87515325       0.02879110       0.01781388      -0.01263573
C        0.00000000       0.00000000      10.12689875      -0.03440909      -0.17795387      -0.00743141
C       -0.68230000       2.36349000      10.12250177      -0.20076912      -0.05552109      -0.02081235
C       -1.36451000       4.72697000      10.12689840      -0.14110176       0.11883599      -0.00743513
C       -2.04686000       7.09053000      10.12481910       0.00996142       0.00818932       0.00780992
C        1.70569000       1.77263000      10.12250250       0.14777011      -0.14386453      -0.02081459
C        1.02347000       4.13612000      10.12250396       0.04850825       0.20325309      -0.02081478
C        0.34117000       6.49960000      10.12484610       0.02673793      -0.01569955       0.01263395
C        4.09368000       1.18178000      10.12484676      -0.02885547      -0.01792891       0.01263625
C        3.41138000       3.54527000      10.12689827       0.17450755       0.06085122      -0.00744511
C        2.72916000       5.90875000      10.12481868      -0.01428612       0.00534981       0.00780750
C        6.48171000       0.59085000      10.12484644      -0.00074624       0.03538501       0.01263604
C        5.79936000       2.95441000      10.12481878       0.00722605      -0.01520400       0.00781151
C        5.11715000       5.31790000      10.12550055       0.00009604      -0.00049204      -0.00414669
C       -3.41146000       6.69663000      10.12484613      -0.02670436       0.01602042       0.01263438
C        0.34108000       1.37873000      10.12250412      -0.04805250      -0.20312273      -0.02081523
C       -0.34113000       3.74222000      10.12250245      -0.14793529       0.14402430      -0.02081594
C       -1.02343000       6.10570000      10.12481903      -0.00994713      -0.00801725       0.00780924
C        2.72907000       0.78788000      10.12689851       0.14097268      -0.11898802      -0.00743448
C        2.04686000       3.15137000      10.12250185       0.20053627       0.05506743      -0.02081328
C        1.36456000       5.51485000      10.12689869       0.03431559       0.17783075      -0.00743280
C        5.11711000       0.19695000      10.12550057      -0.00013540       0.00042040      -0.00414703
C        4.43489000       2.56044000      10.12481876      -0.00694048       0.01514037       0.00781149
C        3.75255000       4.92400000      10.12484650       0.00087031      -0.03548651       0.01263604
C        3.07025000       7.28748000      10.12481872       0.01428011      -0.00522087       0.00780741
C        6.82288000       1.96958000      10.12689825      -0.17469317      -0.06067727      -0.00744617
C        6.14058000       4.33307000      10.12484675       0.02879110       0.01781388       0.01263573
Li       0.68228045       2.75742913      12.00000000       0.00000548      -0.00001070       0.00000000
53
Lattice="8.869700432 0.0 0.0 -4.434850216 7.681385898 0.0 0.0 0.0 24.0" Properties=species:S:1:pos:R:3:forces:R:3 energy=-485.0919741299609 stress="-0.06984537017141194 3.923441137653043e-06 -7.499515792753838e-18 3.923441137653043e-06 -0.06984530729906338 5.310144394419768e-18 -7.499515792753838e-18 5.310144394419768e-18 -8.733021990659831e-05" free_energy=-485.0919741299609 pbc="T T T"
C        0.00000000       0.00000000      13.87393756      -0.03467645      -0.17801359      -0.00321887
C       -0.68230000       2.36349000      13.88256442      -0.20044152      -0.05542208       0.01167465
C       -1.36451000       4.72697000      13.87393878      -0.14101863       0.11909573      -0.00323407
C       -2.04686000       7.09053000      13.87366958       0.01026380       0.00777027      -0.00762177
C        1.70569000       1.77263000      13.88256388       0.14752130      -0.14363324       0.01165916
C        1.02347000       4.13612000      13.88256196       0.04843407       0.20291805       0.01166045
C        0.34117000       6.49960000      13.87266071       0.02658607      -0.01487023       0.02266200
C        4.09368000       1.18178000      13.87265935      -0.02806168      -0.01821259       0.02267405
C        3.41138000       3.54527000      13.87394097       0.17469176       0.06064917      -0.00325870
C        2.72916000       5.90875000      13.87367063      -0.01407493       0.00582113      -0.00762884
C        6.48171000       0.59085000      13.87265983      -0.00138897       0.03483912       0.02268871
C        5.79936000       2.95441000      13.87366968       0.00671258      -0.01525665      -0.00760981
C        5.11715000       5.31790000      13.87516091       0.00009614      -0.00049200      -0.05146760
C       -3.41146000       6.69663000      13.87266057      -0.02655275       0.01519120       0.02266028
C        0.34108000       1.37873000      13.88256183      -0.04797959      -0.20278894       0.01165779
C       -0.34113000       3.74222000      13.88256422      -0.14768478       0.14379177       0.01165465
C       -1.02343000       6.10570000      13.87366980      -0.01024939      -0.00759775      -0.00762265
C        2.72907000       0.78788000      13.87393850       0.14089032      -0.11924875      -0.00323590
C        2.04686000       3.15137000      13.88256450       0.20020878       0.05496973       0.01167111
C        1.36456000       5.51485000      13.87393792       0.03458285       0.17788970      -0.00322046
C        5.11711000       0.19695000      13.87516095      -0.00013537       0.00042033      -0.05146823
C        4.43489000       2.56044000      13.87366972      -0.00642698       0.01519316      -0.00761214
C        3.75255000       4.92400000      13.87265974       0.00151282      -0.03494064       0.02268703
C        3.07025000       7.28748000      13.87367059       0.01406918      -0.00569203      -0.00763018
C        6.82288000       1.96958000      13.87394121      -0.17487709      -0.06047538      -0.00326150
C        6.14058000       4.33307000      13.87265947       0.02799693       0.01809763       0.02267340
C        0.00000000       0.00000000      10.12606244      -0.03467645      -0.17801359       0.00321887
C       -0.68230000       2.36349000      10.11743558      -0.20044152      -0.05542208      -0.01167465
C       -1.36451000       4.72697000      10.12606122      -0.14101863       0.11909573       0.00323407
C       -2.04686000       7.09053000      10.12633042       0.01026380       0.00777027       0.00762177
C        1.70569000       1.77263000      10.11743612       0.14752130      -0.14363324      -0.01165916
C        1.02347000       4.13612000      10.11743804       0.04843407       0.20291805      -0.01166045
C        0.34117000       6.49960000      10.12733929       0.02658607      -0.01487023      -0.02266200
C        4.09368000       1.18178000      10.12734065      -0.02806168      -0.01821259      -0.02267405
C        3.41138000       3.54527000      10.12605903       0.17469176       0.06064917       0.00325870
C        2.72916000       5.90875000      10.12632937      -0.01407493       0.00582113       0.00762884
C        6.48171000       0.59085000      10.12734017      -0.00138897       0.03483912      -0.02268871
C        5.79936000       2.95441000      10.12633032       0.00671258      -0.01525665       0.00760981
C        5.11715000       5.31790000      10.12483909       0.00009614      -0.00049200       0.05146760
C       -3.41146000       6.69663000      10.12733943      -0.02655275       0.01519120      -0.02266028
C        0.34108000       1.37873000      10.11743817      -0.04797959      -0.20278894      -0.01165779
C       -0.34113000       3.74222000      10.11743578      -0.14768478       0.14379177      -0.01165465
C       -1.02343000       6.10570000      10.12633020      -0.01024939      -0.00759775       0.00762265
C        2.72907000       0.78788000      10.12606150       0.14089032      -0.11924875       0.00323590
C        2.04686000       3.15137000      10.11743550       0.20020878       0.05496973      -0.01167111
C        1.36456000       5.51485000      10.12606208       0.03458285       0.17788970       0.00322046
C        5.11711000       0.19695000      10.12483905      -0.00013537       0.00042033       0.05146823
C        4.43489000       2.56044000      10.12633028      -0.00642698       0.01519316       0.00761214
C        3.75255000       4.92400000      10.12734026       0.00151282      -0.03494064      -0.02268703
C        3.07025000       7.28748000      10.12632941       0.01406918      -0.00569203       0.00763018
C        6.82288000       1.96958000      10.12605879      -0.17487709      -0.06047538       0.00326150
C        6.14058000       4.33307000      10.12734053       0.02799693       0.01809763      -0.02267340
Li       0.68228171       2.75742667      12.00000000       0.00000307      -0.00000625      -0.00000000
53
Lattice="8.869700432 0.0 0.0 -4.434850216 7.681385898 0.0 0.0 0.0 24.0" Properties=species:S:1:pos:R:3:forces:R:3 energy=-485.09284772651523 stress="-0.0698609438992087 3.9182620361898186e-06 -1.130940186286921e-17 3.9182620361898186e-06 -0.06986088534108319 2.132609852801429e-18 -1.130940186286921e-17 2.132609852801429e-18 -4.983670614228334e-05" free_energy=-485.09284772651523 pbc="T T T"
C        0.00000000       0.00000000      13.87440446      -0.03452589      -0.17805642       0.00290755
C       -0.68230000       2.36349000      13.88761951      -0.20034399      -0.05538426       0.00199087
C       -1.36451000       4.72697000      13.87440532      -0.14112978       0.11898530       0.00289752
C       -2.04686000       7.09053000      13.87186592       0.01018330       0.00737868       0.00272257
C        1.70569000       1.77263000      13.88761803       0.14744073      -0.14357101       0.00199353
C        1.02347000       4.13612000      13.88761581       0.04842207       0.20281292       0.00200091
C        0.34117000       6.49960000      13.87220207       0.02651017      -0.01463734       0.00460628
C        4.09368000       1.18178000      13.87220100      -0.02782243      -0.01826370       0.00461577
C        3.41138000       3.54527000      13.87440746       0.17465214       0.06080040       0.00288603
C        2.72916000       5.90875000      13.87186699      -0.01369596       0.00594696       0.00272602
C        6.48171000       0.59085000      13.87220265      -0.00155319       0.03465698       0.00461489
C        5.79936000       2.95441000      13.87186670       0.00641409      -0.01499135       0.00273468
C        5.11715000       5.31790000      13.87203579       0.00009614      -0.00049187      -0.02587708
C       -3.41146000       6.69663000      13.87220173      -0.02647711       0.01495845       0.00460657
C        0.34108000       1.37873000      13.88761552      -0.04796892      -0.20268522       0.00200261
C       -0.34113000       3.74222000      13.88761829      -0.14760250       0.14372831       0.00199142
C       -1.02343000       6.10570000      13.87186622      -0.01016873      -0.00720575       0.00272258
C        2.72907000       0.78788000      13.87440477       0.14100215      -0.11913918       0.00289880
C        2.04686000       3.15137000      13.88761948       0.20011146       0.05493329       0.00199116
C        1.36456000       5.51485000      13.87440496       0.03443215       0.17793158       0.00290729
C        5.11711000       0.19695000      13.87203584      -0.00013524       0.00042016      -0.02587600
C        4.43489000       2.56044000      13.87186658      -0.00612845       0.01492804       0.00273471
C        3.75255000       4.92400000      13.87220242       0.00167678      -0.03475856       0.00461535
C        3.07025000       7.28748000      13.87186686       0.01369046      -0.00581769       0.00272653
C        6.82288000       1.96958000      13.87440769      -0.17483704      -0.06062669       0.00288537
C        6.14058000       4.33307000      13.87220116       0.02775733       0.01814877       0.00461677
C        0.00000000       0.00000000      10.12559554      -0.03452589      -0.17805642      -0.00290755
C       -0.68230000       2.36349000      10.11238049      -0.20034399      -0.05538426      -0.00199087
C       -1.36451000       4.72697000      10.12559468      -0.14112978       0.11898530      -0.00289752
C       -2.04686000       7.09053000      10.12813408       0.01018330       0.00737868      -0.00272257
C        1.70569000       1.77263000      10.11238197       0.14744073      -0.14357101      -0.00199353
C        1.02347000       4.13612000      10.11238419       0.04842207       0.20281292      -0.00200091
C        0.34117000       6.49960000      10.12779793       0.02651017      -0.01463734      -0.00460628
C        4.09368000       1.18178000      10.12779900      -0.02782243      -0.01826370      -0.00461577
C        3.41138000       3.54527000      10.12559254       0.17465214       0.06080040      -0.00288603
C        2.72916000       5.90875000      10.12813301      -0.01369596       0.00594696      -0.00272602
C        6.48171000       0.59085000      10.12779735      -0.00155319       0.03465698      -0.00461489
C        5.79936000       2.95441000      10.12813330       0.00641409      -0.01499135      -0.00273468
C        5.11715000       5.31790000      10.12796421       0.00009614      -0.00049187       0.02587708
C       -3.41146000       6.69663000      10.12779827      -0.02647711       0.01495845      -0.00460657
C        0.34108000       1.37873000      10.11238448      -0.04796892      -0.20268522      -0.00200261
C       -0.34113000       3.74222000      10.11238171      -0.14760250       0.14372831      -0.00199142
C       -1.02343000       6.10570000      10.12813378      -0.01016873      -0.00720575      -0.00272258
C        2.72907000       0.78788000      10.12559523       0.14100215      -0.11913918      -0.00289880
C        2.04686000       3.15137000      10.11238052       0.20011146       0.05493329      -0.00199116
C        1.36456000       5.51485000      10.12559504       0.03443215       0.17793158      -0.00290729
C        5.11711000       0.19695000      10.12796416      -0.00013524       0.00042016       0.02587600
C        4.43489000       2.56044000      10.12813342      -0.00612845       0.01492804      -0.00273471
C        3.75255000       4.92400000      10.12779758       0.00167678      -0.03475856      -0.00461535
C        3.07025000       7.28748000      10.12813314       0.01369046      -0.00581769      -0.00272653
C        6.82288000       1.96958000      10.12559231      -0.17483704      -0.06062669      -0.00288537
C        6.14058000       4.33307000      10.12779884       0.02775733       0.01814877      -0.00461677
Li       0.68228298       2.75742417      12.00000000       0.00000056      -0.00000156       0.00000000
53
Lattice="8.869700432 0.0 0.0 -4.434850216 7.681385898 0.0 0.0 0.0 24.0" Properties=species:S:1:pos:R:3:forces:R:3 energy=-485.0929511859326 stress="-0.0698612677402798 3.918613301395792e-06 1.0446925261797427e-17 3.918613301395792e-06 -0.06986120783528245 -2.2619457273710453e-18 1.0446925261797427e-17 -2.2619457273710453e-18 -4.854260283028204e-05" free_energy=-485.0929511859326 pbc="T T T"
C        0.00000000       0.00000000      13.87459417      -0.03442229      -0.17816685       0.00481551
C       -0.68230000       2.36349000      13.88774941      -0.20026474      -0.05537478       0.00263119
C       -1.36451000       4.72697000      13.87459437      -0.14127741       0.11895111       0.00481144
C       -2.04686000       7.09053000      13.87204355       0.01006433       0.00734698       0.00339614
C        1.70569000       1.77263000      13.88774810       0.14739265      -0.14350739       0.00263747
C        1.02347000       4.13612000      13.88774637       0.04839080       0.20273927       0.00263866
C        0.34117000       6.49960000      13.87250261       0.02653059      -0.01467967      -0.00716637
C        4.09368000       1.18178000      13.87250216      -0.02786936      -0.01826027      -0.00716444
C        3.41138000       3.54527000      13.87459577       0.17469631       0.06094548       0.00481393
C        2.72916000       5.90875000      13.87204486      -0.01360895       0.00585980       0.00340381
C        6.48171000       0.59085000      13.87250375      -0.00152678       0.03469587      -0.00717045
C        5.79936000       2.95441000      13.87204513       0.00644599      -0.01487243       0.00340212
C        5.11715000       5.31790000      13.87034741       0.00009609      -0.00049188      -0.00052873
C       -3.41146000       6.69663000      13.87250229      -0.02649752       0.01500078      -0.00716653
C        0.34108000       1.37873000      13.88774618      -0.04793769      -0.20261159       0.00263978
C       -0.34113000       3.74222000      13.88774822      -0.14755438       0.14366468       0.00263595
C       -1.02343000       6.10570000      13.87204385      -0.01004975      -0.00717406       0.00339541
C        2.72907000       0.78788000      13.87459391       0.14114977      -0.11910500       0.00481210
C        2.04686000       3.15137000      13.88774939       0.20003218       0.05492386       0.00263161
C        1.36456000       5.51485000      13.87459465       0.03432855       0.17804199       0.00481459
C        5.11711000       0.19695000      13.87034752      -0.00013518       0.00042015      -0.00052894
C        4.43489000       2.56044000      13.87204501      -0.00616034       0.01480913       0.00340203
C        3.75255000       4.92400000      13.87250356       0.00165035      -0.03479747      -0.00717074
C        3.07025000       7.28748000      13.87204475       0.01360345      -0.00573053       0.00340353
C        6.82288000       1.96958000      13.87459595      -0.17488120      -0.06077177       0.00481344
C        6.14058000       4.33307000      13.87250239       0.02780426       0.01814533      -0.00716489
C        0.00000000       0.00000000      10.12540583      -0.03442229      -0.17816685      -0.00481551
C       -0.68230000       2.36349000      10.11225059      -0.20026474      -0.05537478      -0.00263119
C       -1.36451000       4.72697000      10.12540563      -0.14127741       0.11895111      -0.00481144
C       -2.04686000       7.09053000      10.12795645       0.01006433       0.00734698      -0.00339614
C        1.70569000       1.77263000      10.11225190       0.14739265      -0.14350739      -0.00263747
C        1.02347000       4.13612000      10.11225363       0.04839080       0.20273927      -0.00263866
C        0.34117000       6.49960000      10.12749739       0.02653059      -0.01467967       0.00716637
C        4.09368000       1.18178000      10.12749784      -0.02786936      -0.01826027       0.00716444
C        3.41138000       3.54527000      10.12540423       0.17469631       0.06094548      -0.00481393
C        2.72916000       5.90875000      10.12795514      -0.01360895       0.00585980      -0.00340381
C        6.48171000       0.59085000      10.12749625      -0.00152678       0.03469587       0.00717045
C        5.79936000       2.95441000      10.12795487       0.00644599      -0.01487243      -0.00340212
C        5.11715000       5.31790000      10.12965259       0.00009609      -0.00049188       0.00052873
C       -3.41146000       6.69663000      10.12749771      -0.02649752       0.01500078       0.00716653
C        0.34108000       1.37873000      10.11225382      -0.04793769      -0.20261159      -0.00263978
C       -0.34113000       3.74222000      10.11225178      -0.14755438       0.14366468      -0.00263595
C       -1.02343000       6.10570000      10.12795615      -0.01004975      -0.00717406      -0.00339541
C        2.72907000       0.78788000      10.12540609       0.14114977      -0.11910500      -0.00481210
C        2.04686000       3.15137000      10.11225061       0.20003218       0.05492386      -0.00263161
C        1.36456000       5.51485000      10.12540535       0.03432855       0.17804199      -0.00481459
C        5.11711000       0.19695000      10.12965248      -0.00013518       0.00042015       0.00052894
C        4.43489000       2.56044000      10.12795499      -0.00616034       0.01480913      -0.00340203
C        3.75255000       4.92400000      10.12749644       0.00165035      -0.03479747       0.00717074
C        3.07025000       7.28748000      10.12795525       0.01360345      -0.00573053      -0.00340353
C        6.82288000       1.96958000      10.12540405      -0.17488120      -0.06077177      -0.00481344
C        6.14058000       4.33307000      10.12749761       0.02780426       0.01814533       0.00716489
Li       0.68228302       2.75742407      12.00000000       0.00000055      -0.00000151      -0.00000000
