53
Lattice="8.869700432 0.0 0.0 -4.434850216 7.681385898 0.0 0.0 0.0 24.0" Properties=species:S:1:pos:R:3:forces:R:3 energy=-484.1829064292856 stress="-0.06767959589601379 4.02834145945536e-06 -1.6586852434458765e-09 4.02834145945536e-06 -0.06767966027725439 1.1246798859365027e-08 -1.6586852434458765e-09 1.1246798859365027e-08 -0.007225420983473983" free_energy=-484.1829064292856 pbc="T T T"
C        0.00000000       0.00000000      13.67500000      -0.07762403      -0.30652209       0.18848168
C       -0.68230000       2.36349000      13.67500000      -0.22897687       0.22104435       0.18849346
C       -1.36451000       4.72697000      13.67500000      -0.01734114      -0.03239682       0.03141934
C       -2.04686000       7.09053000      13.67500000       0.04877642      -0.05145531       0.05994413
C        1.70569000       1.77263000      13.67500000       0.30211803       0.08956370       0.18844330
C        1.02347000       4.13612000      13.67500000       0.01729094       0.06861493       0.05993192
C        0.34117000       6.49960000      13.67500000      -0.00186868       0.00162928       0.03457708
C        4.09368000       1.18178000      13.67500000      -0.02114107       0.02788854       0.03142006
C        3.41138000       3.54527000      13.67500000       0.00300465       0.00022963       0.03117575
C        2.72916000       5.90875000      13.67500000       0.03490092       0.00516525       0.03141158
C        6.48171000       0.59085000      13.67500000      -0.06970053      -0.01472449       0.05994445
C        5.79936000       2.95441000      13.67500000       0.00394924      -0.00282793       0.03116192
C        5.11715000       5.31790000      13.67500000       0.00086340      -0.00061223       0.03117407
C       -3.41146000       6.69663000      13.67500000       0.09876253      -0.11891840       0.04755125
C        0.34108000       1.37873000      13.67500000       0.00296420      -0.00113951       3.83146082
C       -0.34113000       3.74222000      13.67500000       0.01435295       0.15587898       0.04807861
C       -1.02343000       6.10570000      13.67500000       0.00545537       0.02912868       0.01807073
C        2.72907000       0.78788000      13.67500000       0.13193334      -0.09074216       0.04806062
C        2.04686000       3.15137000      13.67500000       0.05347689       0.14058473       0.04755315
C        1.36456000       5.51485000      13.67500000      -0.02534055      -0.01038767       0.01807246
C        5.11711000       0.19695000      13.67500000       0.02138968      -0.01852067       0.01807006
C        4.43489000       2.56044000      13.67500000       0.00553381      -0.00878866       0.02453151
C        3.75255000       4.92400000      13.67500000      -0.01276356      -0.00498221       0.02452348
C        3.07025000       7.28748000      13.67500000      -0.14048899      -0.06885790       0.04807980
C        6.82288000       1.96958000      13.67500000      -0.15371391      -0.02449117       0.04756959
C        6.14058000       4.33307000      13.67500000       0.00415857       0.01564093       0.02452710
C        0.00000000       0.00000000      10.32500000      -0.07286937      -0.30044317      -0.22525135
C       -0.68230000       2.36349000      10.32500000      -0.22159884       0.21452483      -0.22526676
C       -1.36451000       4.72697000      10.32500000      -0.02157598      -0.00485800      -0.03876148
C       -2.04686000       7.09053000      10.32500000       0.15169775      -0.12836478      -0.00630089
C        1.70569000       1.77263000      10.32500000       0.29812629       0.08340757      -0.22522507
C        1.02347000       4.13612000      10.32500000       0.03120805       0.19370278      -0.00629812
C        0.34117000       6.49960000      10.32500000      -0.00047769       0.00234441      -0.03160695
C        4.09368000       1.18178000      10.32500000       0.00403318       0.01721447      -0.03875608
C        3.41138000       3.54527000      10.32500000       0.00345176      -0.04056744      -0.03756312
C        2.72916000       5.90875000      10.32500000       0.01700376      -0.01197947      -0.03874698
C        6.48171000       0.59085000      10.32500000      -0.18483504      -0.06579795      -0.00630530
C        5.79936000       2.95441000      10.32500000       0.03554602       0.01956215      -0.03756949
C        5.11715000       5.31790000      10.32500000      -0.03415459       0.01673683      -0.03756754
C       -1.70573000       3.34832000      10.32500000      -0.15011834       0.12468983      -0.00403976
C       -2.38803000       5.71180000      10.32500000       0.02099997       0.00701330      -0.03535556
C        1.36460000       0.39390000      10.32500000       0.21471840      -0.20815026      -0.21198920
C        0.68230000       2.75739000      10.32500000       0.07148359       0.29409081      -0.21206145
C       -0.00004000       5.12095000      10.32500000       0.03857124      -0.02097713      -0.03422821
C       -0.68226000       7.48444000      10.32500000      -0.03317886      -0.02155409      -0.03422197
C        3.07029000       2.16653000      10.32500000       0.18329184       0.06851671      -0.00405728
C        2.38799000       4.53002000      10.32500000      -0.01531396       0.01307932      -0.03535883
C        1.70578000       6.89351000      10.32500000      -0.00348353       0.04000966      -0.03423273
C        5.45828000       1.57568000      10.32500000      -0.00196629      -0.01965796      -0.03535925
C        4.77598000       3.93917000      10.32500000      -0.00179790       0.00079949      -0.02757453
C        4.09377000       6.30265000      10.32500000      -0.03732438      -0.19247036      -0.00405426
C        7.84631000       0.98475000      10.32500000      -0.29146708      -0.08085876      -0.21207599
Li       0.34108000       1.37873000      12.00000000       0.00005841      -0.00001457      -3.37389978
53
Lattice="8.869700432 0.0 0.0 -4.434850216 7.681385898 0.0 0.0 0.0 24.0" Properties=species:S:1:pos:R:3:forces:R:3 energy=-484.58354273497827 stress="-0.0677156410728213 3.900433220525698e-06 -2.4858001396398365e-07 3.900433220525698e-06 -0.06771565249760068 1.1107335032135349e-07 -2.4858001396398365e-07 1.1107335032135349e-07 -0.004970836122165018" free_energy=-484.58354273497827 pbc="T T T"
C        0.00000000       0.00000000      13.68105550      -0.05833580      -0.22850805       0.74330407
C       -0.68230000       2.36349000      13.68105588      -0.17090044       0.16522097       0.74317850
C       -1.36451000       4.72697000      13.67600943      -0.01949938      -0.02969615      -0.02552922
C       -2.04686000       7.09053000      13.67692587       0.04206873      -0.04603786       0.09292809
C        1.70569000       1.77263000      13.68105427       0.22504131       0.06713216       0.74338544
C        1.02347000       4.13612000      13.67692548       0.01595384       0.06009501       0.09292401
C        0.34117000       6.49960000      13.67611089      -0.00186787       0.00163089       0.01556560
C        4.09368000       1.18178000      13.67600946      -0.01773130       0.02840432      -0.02553295
C        3.41138000       3.54527000      13.67600161       0.00965717      -0.00232763      -0.02321191
C        2.72916000       5.90875000      13.67600918       0.03364798       0.00195463      -0.02553455
C        6.48171000       0.59085000      13.67692588      -0.06165822      -0.01163025       0.09295833
C        5.79936000       2.95441000      13.67600116       0.00281975       0.00420173      -0.02322077
C        5.11715000       5.31790000      13.67600155      -0.00467209      -0.00509824      -0.02321869
C       -3.41146000       6.69663000      13.67652772       0.09108593      -0.12197132       0.01479436
C        0.34108000       1.37873000      13.79809642       0.00281259      -0.00103131      -0.16513691
C       -0.34113000       3.74222000      13.67654466       0.00688681       0.15384309       0.01504292
C       -1.02343000       6.10570000      13.67558057       0.01104865       0.01960163       0.03295371
C        2.72907000       0.78788000      13.67654408       0.13384362      -0.08319288       0.01501137
C        2.04686000       3.15137000      13.67652778       0.05995274       0.13552867       0.01479524
C        1.36456000       5.51485000      13.67558063      -0.01989075      -0.00078285       0.03295234
C        5.11711000       0.19695000      13.67558055       0.01034240      -0.01860873       0.03295195
C        4.43489000       2.56044000      13.67578814       0.01006829      -0.00712501       0.03657374
C        3.75255000       4.92400000      13.67578789      -0.01359164      -0.00973574       0.03657043
C        3.07025000       7.28748000      13.67654470      -0.13499102      -0.07429940       0.01503637
C        6.82288000       1.96958000      13.67652831      -0.15256119      -0.01630473       0.01478234
C        6.14058000       4.33307000      13.67578800       0.00045741       0.01873495       0.03657274
C        0.00000000       0.00000000      10.31776317      -0.09082994      -0.37258379      -0.28117055
C       -0.68230000       2.36349000      10.31776267      -0.27510952       0.26614571      -0.28122680
C       -1.36451000       4.72697000      10.32375468      -0.01938078      -0.01345880      -0.03087971
C       -2.04686000       7.09053000      10.32479757       0.15473892      -0.13046785      -0.03398172
C        1.70569000       1.77263000      10.31776401       0.36957357       0.10393917      -0.28114144
C        1.02347000       4.13612000      10.32479766       0.03148886       0.19737618      -0.03400675
C        0.34117000       6.49960000      10.32398454      -0.00047734       0.00234165      -0.02891382
C        4.09368000       1.18178000      10.32375485      -0.00451064       0.01960945      -0.03087946
C        3.41138000       3.54527000      10.32379318      -0.00197654      -0.04802767      -0.03015403
C        2.72916000       5.90875000      10.32375514       0.02336056      -0.00577706      -0.03087595
C        6.48171000       0.59085000      10.32479742      -0.18815519      -0.06737163      -0.03401088
C        5.79936000       2.95441000      10.32379297       0.04472658       0.01858856      -0.03015246
C        5.11715000       5.31790000      10.32379304      -0.03789429       0.02516465      -0.03015210
C       -1.70573000       3.34832000      10.32487021      -0.15323087       0.12686274      -0.03657167
C       -2.38803000       5.71180000      10.32386410       0.01919991       0.01660764      -0.03027535
C        1.36460000       0.39390000      10.31818925       0.26785030      -0.25937794      -0.28339839
C        0.68230000       2.75739000      10.31818693       0.08930115       0.36575490      -0.28347431
C       -0.00004000       5.12095000      10.32390032       0.04298646      -0.03001126      -0.02996737
C       -0.68226000       7.48444000      10.32390052      -0.04320498      -0.02085407      -0.02996773
C        3.07029000       2.16653000      10.32486965       0.18672361       0.07012899      -0.03658041
C        2.38799000       4.53002000      10.32386400      -0.02270752       0.00672999      -0.03026937
C        1.70578000       6.89351000      10.32390018       0.00212855       0.04833495      -0.02996942
C        5.45828000       1.57568000      10.32386398       0.00723997      -0.02289267      -0.03027412
C        4.77598000       3.93917000      10.32411409      -0.00179713       0.00079825      -0.02760814
C        4.09377000       6.30265000      10.32486975      -0.03766637      -0.19624095      -0.03657852
C        7.84631000       0.98475000      10.31818646      -0.36244492      -0.10128303      -0.28350920
Li       0.34108188       1.37872953      11.89160401       0.00008007      -0.00003395      -0.18490691
53
Lattice="8.869700432 0.0 0.0 -4.434850216 7.681385898 0.0 0.0 0.0 24.0" Properties=species:S:1:pos:R:3:forces:R:3 energy=-484.6776993246479 stress="-0.06793385793010863 3.889907752264705e-06 -8.953955411296409e-08 3.889907752264705e-06 -0.06793390720025033 -3.9150405981775486e-09 -8.953955411296409e-08 -3.9150405981775486e-09 -0.0045736776669795635" free_energy=-484.6776993246479 pbc="T T T"
C        0.00000000       0.00000000      13.73487813      -0.07374074      -0.29130899      -0.04536791
C       -0.68230000       2.36349000      13.73486958      -0.21757236       0.20997650      -0.04531818
C       -1.36451000       4.72697000      13.67430752      -0.01989723      -0.03006694       0.00369038
C       -2.04686000       7.09053000      13.68379559       0.05616531      -0.05741980      -0.01642660
C        1.70569000       1.77263000      13.73488256       0.28715680       0.08514179      -0.04540103
C        1.02347000       4.13612000      13.68379486       0.01875989       0.07797320      -0.01638927
C        0.34117000       6.49960000      13.67735654      -0.00186844       0.00163090       0.03970636
C        4.09368000       1.18178000      13.67430728      -0.01785517       0.02892940       0.00367105
C        3.41138000       3.54527000      13.67446427       0.00998183      -0.00716365       0.01331030
C        2.72916000       5.90875000      13.67430686       0.03416910       0.00180872       0.00367793
C        6.48171000       0.59085000      13.68379777      -0.07855037      -0.01815894      -0.01640615
C        5.79936000       2.95441000      13.67446314       0.00685201       0.00688747       0.01330886
C        5.11715000       5.31790000      13.67446373      -0.00901891      -0.00296390       0.01331023
C       -3.41146000       6.69663000      13.67776849       0.07358487      -0.10455873       0.31856615
C        0.34108000       1.37873000      13.80112977       0.00280270      -0.00103157       0.54140166
C       -0.34113000       3.74222000      13.67780523       0.00281197       0.13138733       0.31788792
C       -1.02343000       6.10570000      13.67800435       0.01633992       0.02017106      -0.03513394
C        2.72907000       0.78788000      13.67780233       0.11639610      -0.06840780       0.31791907
C        2.04686000       3.15137000      13.67776863       0.05360890       0.11169346       0.31864537
C        1.36456000       5.51485000      13.67800431      -0.02302962       0.00351249      -0.03514325
C        5.11711000       0.19695000      13.67800420       0.00819389      -0.02347718      -0.03512541
C        4.43489000       2.56044000      13.67849550       0.00466897      -0.00845495      -0.03730571
C        3.75255000       4.92400000      13.67849497      -0.01205618      -0.00439931      -0.03731258
C        3.07025000       7.28748000      13.67780481      -0.11350582      -0.06659140       0.31794819
C        6.82288000       1.96958000      13.67776830      -0.12874346      -0.00984268       0.31852611
C        6.14058000       4.33307000      13.67849527       0.00431898       0.01473595      -0.03731707
C        0.00000000       0.00000000      10.29680777      -0.09459467      -0.38763861      -0.23329166
C       -0.68230000       2.36349000      10.29680320      -0.28626207       0.27692639      -0.23330573
C       -1.36451000       4.72697000      10.32139897      -0.01828571      -0.01322412      -0.01658700
C       -2.04686000       7.09053000      10.32234591       0.15481890      -0.13063218      -0.10100950
C        1.70569000       1.77263000      10.29681080       0.38449483       0.10821262      -0.23327912
C        1.02347000       4.13612000      10.32234423       0.03158914       0.19752078      -0.10106753
C        0.34117000       6.49960000      10.32179694      -0.00047698       0.00233962      -0.00971002
C        4.09368000       1.18178000      10.32139918      -0.00485364       0.01854429      -0.01659197
C        3.41138000       3.54527000      10.32149394      -0.00186244      -0.04758014      -0.02208489
C        2.72916000       5.90875000      10.32139976       0.02260884      -0.00494823      -0.01659325
C        6.48171000       0.59085000      10.32234367      -0.18832773      -0.06735654      -0.10108284
C        5.79936000       2.95441000      10.32149382       0.04428300       0.01846488      -0.02207612
C        5.11715000       5.31790000      10.32149392      -0.03756424       0.02484147      -0.02207750
C       -1.70573000       3.34832000      10.32224231      -0.15216300       0.12580453      -0.10105866
C       -2.38803000       5.71180000      10.32156474       0.01908286       0.01720501      -0.01698627
C        1.36460000       0.39390000      10.29712605       0.27904483      -0.27013151      -0.23706985
C        0.68230000       2.75739000      10.29711803       0.09301773       0.38082528      -0.23707494
C       -0.00004000       5.12095000      10.32162732       0.04337020      -0.02969465      -0.02250271
C       -0.68226000       7.48444000      10.32162752      -0.04312514      -0.02134336      -0.02249206
C        3.07029000       2.16653000      10.32224106       0.18527664       0.06973558      -0.10101348
C        2.38799000       4.53002000      10.32156505      -0.02316391       0.00633239      -0.01698857
C        1.70578000       6.89351000      10.32162701       0.00166191       0.04850813      -0.02249649
C        5.45828000       1.57568000      10.32156470       0.00781132      -0.02308961      -0.01699929
C        4.77598000       3.93917000      10.32203536      -0.00179575       0.00079754      -0.01165002
C        4.09377000       6.30265000      10.32224130      -0.03728557      -0.19478720      -0.10101911
C        7.84631000       0.98475000      10.29711501      -0.37735164      -0.10560247      -0.23709088
Li       0.34108782       1.37872705      11.86533843       0.00007933      -0.00003231       0.13427699
53
Lattice="8.869700432 0.0 0.0 -4.434850216 7.681385898 0.0 0.0 0.0 24.0" Properties=species:S:1:pos:R:3:forces:R:3 energy=-484.80387362691 stress="-0.06766781783844514 3.814345598008651e-06 -3.0630557579488604e-07 3.814345598008651e-06 -0.06766787370789673 2.034464351480537e-07 -3.0630557579488604e-07 2.034464351480537e-07 -0.003074040951713209" free_energy=-484.80387362691 pbc="T T T"
C        0.00000000       0.00000000      13.79020883      -0.06138765      -0.24077695       0.29227585
C       -0.68230000       2.36349000      13.79019832      -0.17994577       0.17397765       0.29223635
C       -1.36451000       4.72697000      13.67294300      -0.00169277      -0.06023885       0.21931838
C       -2.04686000       7.09053000      13.68904218       0.03972288      -0.04342537       0.42133865
C        1.70569000       1.77263000      13.79021425       0.23724461       0.07056452       0.29230715
C        1.02347000       4.13612000      13.68904743       0.01487115       0.05675214       0.42131216
C        0.34117000       6.49960000      13.68559440      -0.00187174       0.00163116      -0.12100616
C        4.09368000       1.18178000      13.67293915      -0.05311637       0.02823596       0.21946903
C        3.41138000       3.54527000      13.67493479      -0.01595655      -0.02693039       0.14491384
C        2.72916000       5.90875000      13.67293973       0.05119255       0.03269689       0.21948806
C        6.48171000       0.59085000      13.68905038      -0.05823278      -0.01093338       0.42124033
C        5.79936000       2.95441000      13.67493261       0.03692994      -0.00569451       0.14492328
C        5.11715000       5.31790000      13.67493366      -0.01316152       0.02937732       0.14489094
C       -3.41146000       6.69663000      13.73360335       0.08181216      -0.12668531      -0.16357047
C        0.34108000       1.37873000      13.89710445       0.00275745      -0.00099854      -0.45296289
C       -0.34113000       3.74222000      13.73354751      -0.00185933       0.15810418      -0.16641535
C       -1.02343000       6.10570000      13.67484726       0.01809177       0.00958197      -0.04994721
C        2.72907000       0.78788000      13.73354721       0.14189956      -0.07773619      -0.16653177
C        2.04686000       3.15137000      13.73361709       0.06865648       0.12987922      -0.16350542
C        1.36456000       5.51485000      13.67484553      -0.01472370       0.01032868      -0.04996541
C        5.11711000       0.19695000      13.67484842      -0.00184799      -0.01969434      -0.04994670
C        4.43489000       2.56044000      13.67530001       0.01962260      -0.00993887      -0.06186280
C        3.75255000       4.92400000      13.67529799      -0.02083201      -0.01661835      -0.06185806
C        3.07025000       7.28748000      13.73355683      -0.13432889      -0.08401149      -0.16648252
C        6.82288000       1.96958000      13.73359540      -0.15200300      -0.00589508      -0.16357037
C        6.14058000       4.33307000      13.67529773      -0.00186985       0.02845019      -0.06182317
C        0.00000000       0.00000000      10.23242593      -0.09294717      -0.38032227      -0.07402728
C       -0.68230000       2.36349000      10.23241418      -0.28076782       0.27181534      -0.07396777
C       -1.36451000       4.72697000      10.31580681      -0.01441632      -0.01890626      -0.03305363
C       -2.04686000       7.09053000      10.30222999       0.13520246      -0.11229231      -0.14991144
C        1.70569000       1.77263000      10.23243366       0.37732655       0.10603348      -0.07405381
C        1.02347000       4.13612000      10.30221631       0.02550781       0.17137055      -0.14993412
C        0.34117000       6.49960000      10.31757572      -0.00047219       0.00233852       0.05654347
C        4.09368000       1.18178000      10.31580622      -0.01171192       0.01803006      -0.03301113
C        3.41138000       3.54527000      10.31502944      -0.00544123      -0.05226519      -0.05016970
C        2.72916000       5.90875000      10.31580691       0.02559446       0.00124790      -0.03303417
C        6.48171000       0.59085000      10.30221277      -0.16262990      -0.05953858      -0.14994355
C        5.79936000       2.95441000      10.31503093       0.05014005       0.01770800      -0.05023000
C        5.11715000       5.31790000      10.31503082      -0.03983409       0.03027682      -0.05016830
C       -1.70573000       3.34832000      10.30191146      -0.13319434       0.10799032      -0.14514039
C       -2.38803000       5.71180000      10.31597046       0.01564438       0.02246720      -0.03397392
C        1.36460000       0.39390000      10.23197292       0.27563286      -0.26709605      -0.06416333
C        0.68230000       2.75739000      10.23195735       0.09209311       0.37630766      -0.06407248
C       -0.00004000       5.12095000      10.31512225       0.04511148      -0.03368659      -0.04847883
C       -0.68226000       7.48444000      10.31512427      -0.04744500      -0.02084919      -0.04841298
C        3.07029000       2.16653000      10.30191710       0.16039137       0.06222294      -0.14510796
C        2.38799000       4.53002000      10.31597086      -0.02600270       0.00071571      -0.03403890
C        1.70578000       6.89351000      10.31512281       0.00423668       0.05200216      -0.04847753
C        5.45828000       1.57568000      10.31596828       0.01409163      -0.02274232      -0.03406316
C        4.77598000       3.93917000      10.31761056      -0.00179317       0.00080181       0.05562929
C        4.09377000       6.30265000      10.30191656      -0.03135390      -0.16946757      -0.14511007
C        7.84631000       0.98475000      10.23194862      -0.37296225      -0.10415661      -0.06404713
Li       0.34110833       1.37871863      11.85747928       0.00002793      -0.00000777       0.35015310
53
Lattice="8.869700432 0.0 0.0 -4.434850216 7.681385898 0.0 0.0 0.0 24.0" Properties=species:S:1:pos:R:3:forces:R:3 energy=-484.8680521641611 stress="-0.0673985351866755 3.774739190769257e-06 -3.0843565706664296e-07 3.774739190769257e-06 -0.06739865973617096 2.0056070063567267e-07 -3.0843565706664296e-07 2.0056070063567267e-07 -0.0023107182199867586" free_energy=-484.8680521641611 pbc="T T T"
C        0.00000000       0.00000000      13.84702443      -0.07915199      -0.31619905      -0.11967001
C       -0.68230000       2.36349000      13.84700982      -0.23639195       0.22707806      -0.11964645
C       -1.36451000       4.72697000      13.68772230       0.00408228      -0.07022624       0.03373919
C       -2.04686000       7.09053000      13.72254560       0.05851393      -0.06258890       0.14205141
C        1.70569000       1.77263000      13.84703272       0.31146595       0.09284634      -0.11964471
C        1.02347000       4.13612000      13.72255283       0.02206240       0.08261203       0.14213958
C        0.34117000       6.49960000      13.68230180      -0.00188002       0.00163180      -0.21871507
C        4.09368000       1.18178000      13.68772687      -0.06465099       0.02822338       0.03377045
C        3.41138000       3.54527000      13.68559139      -0.03175863      -0.04064170      -0.02563717
C        2.72916000       5.90875000      13.68772946       0.05694778       0.04270565       0.03380827
C        6.48171000       0.59085000      13.72255069      -0.08422936      -0.01762845       0.14202454
C        5.79936000       2.95441000      13.68558920       0.05670582      -0.01252608      -0.02561184
C        5.11715000       5.31790000      13.68558824      -0.01713284       0.04990539      -0.02566231
C       -3.41146000       6.69663000      13.75818596       0.04366331      -0.11506187       0.02660839
C        0.34108000       1.37873000      13.92708805       0.00276648      -0.00100704       0.01910556
C       -0.34113000       3.74222000      13.75786678      -0.02407925       0.12354805       0.02638556
C       -1.02343000       6.10570000      13.66922899       0.00350183       0.01814180       0.17455275
C        2.72907000       0.78788000      13.75785985       0.12305878      -0.04119363       0.02638002
C        2.04686000       3.15137000      13.75821318       0.07767661       0.09105825       0.02658088
C        1.36456000       5.51485000      13.66922486      -0.01483322      -0.00659970       0.17460430
C        5.11711000       0.19695000      13.66923103       0.01287374      -0.01133447       0.17458729
C        4.43489000       2.56044000      13.66880568       0.02219585      -0.01458505       0.16993159
C        3.75255000       4.92400000      13.66880304      -0.02616947      -0.01654577       0.16994628
C        3.07025000       7.28748000      13.75787763      -0.09329098      -0.08597551       0.02633318
C        6.82288000       1.96958000      13.75817297      -0.12284989       0.02132635       0.02662218
C        6.14058000       4.33307000      13.66880491       0.00087463       0.03303788       0.16992032
C        0.00000000       0.00000000      10.18532057      -0.09319538      -0.37901053       0.02273324
C       -0.68230000       2.36349000      10.18530841      -0.27952335       0.27136071       0.02279639
C       -1.36451000       4.72697000      10.30981358      -0.01140359      -0.02803098      -0.07990822
C       -2.04686000       7.09053000      10.27845621       0.12224045      -0.09984670      -0.09794039
C        1.70569000       1.77263000      10.18532945       0.37630535       0.10519562       0.02270222
C        1.02347000       4.13612000      10.27843313       0.02121566       0.15395048      -0.09793426
C        0.34117000       6.49960000      10.31887275      -0.00046698       0.00234138       0.02338175
C        4.09368000       1.18178000      10.30981550      -0.02112230       0.01997614      -0.07986868
C        3.41138000       3.54527000      10.30724703      -0.00941307      -0.06160444      -0.05530304
C        2.72916000       5.90875000      10.30981463       0.03198788       0.00842517      -0.07991351
C        6.48171000       0.59085000      10.27842696      -0.14539287      -0.05454486      -0.09792098
C        5.79936000       2.95441000      10.30724525       0.06022845       0.01893097      -0.05539186
C        5.11715000       5.31790000      10.30724942      -0.04593836       0.03838118      -0.05528383
C       -1.70573000       3.34832000      10.27833886      -0.11795587       0.09415215      -0.09733986
C       -2.38803000       5.71180000      10.30991012       0.01412874       0.03161241      -0.07964571
C        1.36460000       0.39390000      10.18507116       0.27390352      -0.26607780       0.02910687
C        0.68230000       2.75739000      10.18505717       0.09206391       0.37425978       0.02918668
C       -0.00004000       5.12095000      10.30743427       0.05157438      -0.04124418      -0.05323841
C       -0.68226000       7.48444000      10.30744216      -0.05720669      -0.02266283      -0.05314859
C        3.07029000       2.16653000      10.27835130       0.14079713       0.05594671      -0.09734215
C        2.38799000       4.53002000      10.30990594      -0.03317393      -0.00518226      -0.07968571
C        1.70578000       6.89351000      10.30743548       0.00753418       0.06136928      -0.05322054
C        5.45828000       1.57568000      10.30990018       0.02278259      -0.02600171      -0.07972716
C        4.77598000       3.93917000      10.31871006      -0.00179042       0.00080605       0.02483853
C        4.09377000       6.30265000      10.27835009      -0.02699044      -0.14935495      -0.09733430
C        7.84631000       0.98475000      10.18504654      -0.37117092      -0.10315420       0.02921405
Li       0.34112365       1.37871260      11.87738549       0.00001117       0.00000588       0.10168328
53