65
Lattice="9.840000153 0.0 0.0 -4.920000076 8.521690105 0.0 0.0 0.0 24.0" Properties=species:S:1:pos:R:3:forces:R:3 energy=-596.5793977497948 stress="-0.06921225800142956 1.2690836892223189e-05 1.2906828565464815e-17 1.2690836892223189e-05 -0.06919788935431859 1.5808128148720564e-19 1.2906828565464815e-17 1.5808128148720564e-19 -0.00012386876985178254" free_energy=-596.5793977497948 pbc="T T T"
C        0.00000000       0.00000000      13.87500000      -0.18242097      -0.10304245       0.03520542
C        8.61000000       2.13042000      13.87500000      -0.16130097       0.09322234      -0.02534690
C       -2.46000000       4.26085000      13.87500000      -0.01654894      -0.00762076      -0.00444811
C       -3.69000000       6.39127000      13.87500000      -0.00185950      -0.18306426      -0.02534813
C        2.46000000       0.00000000      13.87500000       0.17873229      -0.10314122       0.03522642
C        1.23000000       2.13042000      13.87500000      -0.00193304       0.20960333       0.03519216
C       -0.00000000       4.26085000      13.87500000       0.01752968      -0.00608725       0.00353028
C       -1.23000000       6.39127000      13.87500000       0.00180111       0.02142709       0.00352128
C        4.92000000       0.00000000      13.87500000      -0.01762552      -0.01221141       0.00352079
C        3.69000000       2.13042000      13.87500000       0.15762986       0.09324508      -0.02534852
C        2.46000000       4.26085000      13.87500000      -0.02131749      -0.00607904       0.00352872
C        1.23000000       6.39127000      13.87500000      -0.00192249       0.00114535      -0.00415538
C        7.38000000       0.00000000      13.87500000       0.01381951      -0.01222444       0.00353037
C        6.15000000       2.13042000      13.87500000      -0.00189548       0.01810471      -0.00444848
C        4.92000000       4.26085000      13.87500000       0.01273139      -0.00760495      -0.00445104
C        3.69000000       6.39127000      13.87500000      -0.00561841       0.02140893       0.00352931
C       -0.00005000       1.42031000      13.87500000      -0.17870186       0.10314468       0.03519410
C       -1.23005000       3.55073000      13.87500000      -0.00179815      -0.02113286       0.00352046
C       -2.46005000       5.68116000      13.87500000      -0.01753672       0.00573397       0.00353168
C       -3.69005000       7.81158000      13.87500000       0.00191954      -0.20957809       0.03522257
C        2.45995000       1.42031000      13.87500000       0.18240809       0.10306539       0.03520486
C        1.22995000       3.55073000      13.87500000       0.00185756       0.18333713      -0.02534885
C       -0.00005000       5.68116000      13.87500000       0.01654325       0.00726819      -0.00444819
C       -1.23005000       7.81158000      13.87500000       0.16131854      -0.09318105      -0.02534646
C        4.91995000       1.42031000      13.87500000      -0.01381268       0.01223491       0.00353115
C        3.68995000       3.55073000      13.87500000       0.00561285      -0.02112024       0.00352914
C        2.45995000       5.68116000      13.87500000      -0.01272687       0.00725229      -0.00445121
C        1.22995000       7.81158000      13.87500000       0.00189187      -0.01805324      -0.00444834
C        7.37995000       1.42031000      13.87500000       0.01762219       0.01221752       0.00352028
C        6.14995000       3.55073000      13.87500000       0.00192519      -0.00084961      -0.00415468
C        4.91995000       5.68116000      13.87500000       0.02132589       0.00573231       0.00352950
C        3.68995000       7.81158000      13.87500000      -0.15762748      -0.09319162      -0.02534852
C        0.00000000       0.00000000      10.12500000      -0.18242097      -0.10304245      -0.03520542
C        8.61000000       2.13042000      10.12500000      -0.16130097       0.09322234       0.02534690
C       -2.46000000       4.26085000      10.12500000      -0.01654894      -0.00762076       0.00444811
C       -3.69000000       6.39127000      10.12500000      -0.00185950      -0.18306426       0.02534813
C        2.46000000       0.00000000      10.12500000       0.17873229      -0.10314122      -0.03522642
C        1.23000000       2.13042000      10.12500000      -0.00193304       0.20960333      -0.03519216
C       -0.00000000       4.26085000      10.12500000       0.01752968      -0.00608725      -0.00353028
C       -1.23000000       6.39127000      10.12500000       0.00180111       0.02142709      -0.00352128
C        4.92000000       0.00000000      10.12500000      -0.01762552      -0.01221141      -0.00352079
C        3.69000000       2.13042000      10.12500000       0.15762986       0.09324508       0.02534852
C        2.46000000       4.26085000      10.12500000      -0.02131749      -0.00607904      -0.00352872
C        1.23000000       6.39127000      10.12500000      -0.00192249       0.00114535       0.00415538
C        7.38000000       0.00000000      10.12500000       0.01381951      -0.01222444      -0.00353037
C        6.15000000       2.13042000      10.12500000      -0.00189548       0.01810471       0.00444848
C        4.92000000       4.26085000      10.12500000       0.01273139      -0.00760495       0.00445104
C        3.69000000       6.39127000      10.12500000      -0.00561841       0.02140893      -0.00352931
C       -0.00005000       1.42031000      10.12500000      -0.17870186       0.10314468      -0.03519410
C       -1.23005000       3.55073000      10.12500000      -0.00179815      -0.02113286      -0.00352046
C       -2.46005000       5.68116000      10.12500000      -0.01753672       0.00573397      -0.00353168
C       -3.69005000       7.81158000      10.12500000       0.00191954      -0.20957809      -0.03522257
C        2.45995000       1.42031000      10.12500000       0.18240809       0.10306539      -0.03520486
C        1.22995000       3.55073000      10.12500000       0.00185756       0.18333713       0.02534885
C       -0.00005000       5.68116000      10.12500000       0.01654325       0.00726819       0.00444819
C       -1.23005000       7.81158000      10.12500000       0.16131854      -0.09318105       0.02534646
C        4.91995000       1.42031000      10.12500000      -0.01381268       0.01223491      -0.00353115
C        3.68995000       3.55073000      10.12500000       0.00561285      -0.02112024      -0.00352914
C        2.45995000       5.68116000      10.12500000      -0.01272687       0.00725229       0.00445121
C        1.22995000       7.81158000      10.12500000       0.00189187      -0.01805324       0.00444834
C        7.37995000       1.42031000      10.12500000       0.01762219       0.01221752      -0.00352028
C        6.14995000       3.55073000      10.12500000       0.00192519      -0.00084961       0.00415468
C        4.91995000       5.68116000      10.12500000       0.02132589       0.00573231      -0.00352950
C        3.68995000       7.81158000      10.12500000      -0.15762748      -0.09319162       0.02534852
Li       1.23000000       0.71011000      12.00000000      -0.00004448       0.00007849       0.00000000
65
Lattice="9.840000153 0.0 0.0 -4.920000076 8.521690105 0.0 0.0 0.0 24.0" Properties=species:S:1:pos:R:3:forces:R:3 energy=-596.5804370081208 stress="-0.06922524950532571 1.268830934422623e-05 -7.781099175249673e-18 1.268830934422623e-05 -0.06921088334983133 1.305551619800628e-17 -7.781099175249673e-18 1.305551619800628e-17 -0.00010668543397693827" free_energy=-596.5804370081208 pbc="T T T"
C        0.00000000       0.00000000      13.87751467      -0.18192643      -0.10276007       0.02138056
C        8.61000000       2.13042000      13.87318951      -0.16181119       0.09351707       0.00781175
C       -2.46000000       4.26085000      13.87468228      -0.01659732      -0.00764885       0.00200517
C       -3.69000000       6.39127000      13.87318942      -0.00185942      -0.18365149       0.00783336
C        2.46000000       0.00000000      13.87751617       0.17823816      -0.10285655       0.02139231
C        1.23000000       2.13042000      13.87751373      -0.00193084       0.20903585       0.02137457
C        0.00000000       4.26085000      13.87525216       0.01726097      -0.00584585      -0.00930872
C       -1.23000000       6.39127000      13.87525152       0.00187578       0.02107212      -0.00930787
C        4.92000000       0.00000000      13.87525149      -0.01728059      -0.01209883      -0.00930909
C        3.69000000       2.13042000      13.87318939       0.15813962       0.09353946       0.00782611
C        2.46000000       4.26085000      13.87525205      -0.02104852      -0.00583783      -0.00930934
C        1.23000000       6.39127000      13.87470319      -0.00192225       0.00114509      -0.00921436
C        7.38000000       0.00000000      13.87525217       0.01347554      -0.01211230      -0.00930950
C        6.15000000       2.13042000      13.87468225      -0.00189542       0.01816085       0.00200535
C        4.92000000       4.26085000      13.87468207       0.01277979      -0.00763298       0.00200855
C        3.69000000       6.39127000      13.87525209      -0.00569270       0.02105488      -0.00930889
C       -0.00005000       1.42031000      13.87751386      -0.17821174       0.10286119       0.02138192
C       -1.23005000       3.55073000      13.87525146      -0.00187301      -0.02077900      -0.00930823
C       -2.46005000       5.68116000      13.87525226      -0.01726696       0.00549221      -0.00930803
C       -3.69005000       7.81158000      13.87751590       0.00191830      -0.20900653       0.02138608
C        2.45995000       1.42031000      13.87751463       0.18191454       0.10278136       0.02138134
C        1.22995000       3.55073000      13.87318937       0.00185721       0.18392691       0.00782136
C       -0.00005000       5.68116000      13.87468227       0.01659179       0.00729602       0.00200457
C       -1.23005000       7.81158000      13.87318954       0.16182658      -0.09347420       0.00782439
C        4.91995000       1.42031000      13.87525222      -0.01346905       0.01212232      -0.00930745
C        3.68995000       3.55073000      13.87525208       0.00568768      -0.02076614      -0.00931089
C        2.45995000       5.68116000      13.87468206      -0.01277570       0.00728039       0.00200881
C        1.22995000       7.81158000      13.87468226       0.00189196      -0.01810897       0.00200404
C        7.37995000       1.42031000      13.87525145       0.01727847       0.01210521      -0.00930754
C        6.14995000       3.55073000      13.87470324       0.00192517      -0.00084973      -0.00921427
C        4.91995000       5.68116000      13.87525211       0.02105611       0.00549024      -0.00931078
C        3.68995000       7.81158000      13.87318939      -0.15813747      -0.09348550       0.00782611
C        0.00000000       0.00000000      10.12248533      -0.18192643      -0.10276007      -0.02138056
C        8.61000000       2.13042000      10.12681049      -0.16181119       0.09351707      -0.00781175
C       -2.46000000       4.26085000      10.12531772      -0.01659732      -0.00764885      -0.00200517
C       -3.69000000       6.39127000      10.12681058      -0.00185942      -0.18365149      -0.00783336
C        2.46000000       0.00000000      10.12248383       0.17823816      -0.10285655      -0.02139231
C        1.23000000       2.13042000      10.12248627      -0.00193084       0.20903585      -0.02137457
C        0.00000000       4.26085000      10.12474784       0.01726097      -0.00584585       0.00930872
C       -1.23000000       6.39127000      10.12474848       0.00187578       0.02107212       0.00930787
C        4.92000000       0.00000000      10.12474851      -0.01728059      -0.01209883       0.00930909
C        3.69000000       2.13042000      10.12681061       0.15813962       0.09353946      -0.00782611
C        2.46000000       4.26085000      10.12474795      -0.02104852      -0.00583783       0.00930934
C        1.23000000       6.39127000      10.12529681      -0.00192225       0.00114509       0.00921436
C        7.38000000       0.00000000      10.12474783       0.01347554      -0.01211230       0.00930950
C        6.15000000       2.13042000      10.12531775      -0.00189542       0.01816085      -0.00200535
C        4.92000000       4.26085000      10.12531793       0.01277979      -0.00763298      -0.00200855
C        3.69000000       6.39127000      10.12474791      -0.00569270       0.02105488       0.00930889
C       -0.00005000       1.42031000      10.12248614      -0.17821174       0.10286119      -0.02138192
C       -1.23005000       3.55073000      10.12474854      -0.00187301      -0.02077900       0.00930823
C       -2.46005000       5.68116000      10.12474774      -0.01726696       0.00549221       0.00930803
C       -3.69005000       7.81158000      10.12248410       0.00191830      -0.20900653      -0.02138608
C        2.45995000       1.42031000      10.12248537       0.18191454       0.10278136      -0.02138134
C        1.22995000       3.55073000      10.12681063       0.00185721       0.18392691      -0.00782136
C       -0.00005000       5.68116000      10.12531773       0.01659179       0.00729602      -0.00200457
C       -1.23005000       7.81158000      10.12681046       0.16182658      -0.09347420      -0.00782439
C        4.91995000       1.42031000      10.12474778      -0.01346905       0.01212232       0.00930745
C        3.68995000       3.55073000      10.12474792       0.00568768      -0.02076614       0.00931089
C        2.45995000       5.68116000      10.12531794      -0.01277570       0.00728039      -0.00200881
C        1.22995000       7.81158000      10.12531774       0.00189196      -0.01810897      -0.00200404
C        7.37995000       1.42031000      10.12474855       0.01727847       0.01210521       0.00930754
C        6.14995000       3.55073000      10.12529676       0.00192517      -0.00084973       0.00921427
C        4.91995000       5.68116000      10.12474789       0.02105611       0.00549024       0.00931078
C        3.68995000       7.81158000      10.12681061      -0.15813747      -0.09348550      -0.00782611
Li       1.22999682       0.71011561      12.00000000      -0.00003809       0.00006735       0.00000000
65
Lattice="9.840000153 0.0 0.0 -4.920000076 8.521690105 0.0 0.0 0.0 24.0" Properties=species:S:1:pos:R:3:forces:R:3 energy=-596.5813198799447 stress="-0.06923863752864623 1.268463556017367e-05 2.378480181126836e-18 1.268463556017367e-05 -0.0692242756850011 -5.243490123890292e-18 2.378480181126836e-18 -5.243490123890292e-18 -7.609956278641105e-05" free_energy=-596.5813198799447 pbc="T T T"
C        0.00000000       0.00000000      13.88232885      -0.18160741      -0.10258226       0.01245299
C        8.61000000       2.13042000      13.87408799      -0.16195122       0.09359824      -0.00152698
C       -2.46000000       4.26085000      13.87495925      -0.01665139      -0.00768039      -0.03283536
C       -3.69000000       6.39127000      13.87409194      -0.00185993      -0.18380751      -0.00154304
C        2.46000000       0.00000000      13.88233303       0.17791862      -0.10267382       0.01243004
C        1.23000000       2.13042000      13.88232648      -0.00192684       0.20867562       0.01245862
C        0.00000000       4.26085000      13.87358083       0.01715270      -0.00515868       0.00967955
C       -1.23000000       6.39127000      13.87358014       0.00241644       0.02063221       0.00968140
C        4.92000000       0.00000000      13.87357987      -0.01662886      -0.01234766       0.00968257
C        3.69000000       2.13042000      13.87409054       0.15827746       0.09361994      -0.00153957
C        2.46000000       4.26085000      13.87358057      -0.02094053      -0.00515115       0.00968360
C        1.23000000       6.39127000      13.87287652      -0.00192202       0.00114467       0.02803143
C        7.38000000       0.00000000      13.87358069       0.01282505      -0.01236182       0.00968401
C        6.15000000       2.13042000      13.87495925      -0.00189529       0.01822390      -0.03283289
C        4.92000000       4.26085000      13.87495961       0.01283353      -0.00766419      -0.03284483
C        3.69000000       6.39127000      13.87358070      -0.00623304       0.02061687       0.00968688
C       -0.00005000       1.42031000      13.88232804      -0.17790207       0.10268070       0.01243485
C       -1.23005000       3.55073000      13.87358000      -0.00241438      -0.02034131       0.00967001
C       -2.46005000       5.68116000      13.87358109      -0.01715640       0.00480448       0.00969036
C       -3.69005000       7.81158000      13.88233150       0.00191724      -0.20863647       0.01244921
C        2.45995000       1.42031000      13.88232894       0.18159853       0.10259844       0.01245096
C        1.22995000       3.55073000      13.87408961       0.00185718       0.18409013      -0.00154221
C       -0.00005000       5.68116000      13.87495913       0.01664616       0.00732706      -0.03283455
C       -1.23005000       7.81158000      13.87409041       0.16196075      -0.09355135      -0.00153075
C        4.91995000       1.42031000      13.87358115      -0.01281941       0.01237074       0.00968235
C        3.68995000       3.55073000      13.87358031       0.00622942      -0.02032795       0.00968941
C        2.45995000       5.68116000      13.87495965      -0.01283039       0.00731180      -0.03283966
C        1.22995000       7.81158000      13.87495902       0.00189212      -0.01817111      -0.03283643
C        7.37995000       1.42031000      13.87358011       0.01662917       0.01235465       0.00966925
C        6.14995000       3.55073000      13.87287661       0.00192543      -0.00085017       0.02803313
C        4.91995000       5.68116000      13.87358037       0.02094635       0.00480173       0.00969666
C        3.68995000       7.81158000      13.87409054      -0.15827588      -0.09356506      -0.00154048
C        0.00000000       0.00000000      10.11767115      -0.18160741      -0.10258226      -0.01245299
C        8.61000000       2.13042000      10.12591201      -0.16195122       0.09359824       0.00152698
C       -2.46000000       4.26085000      10.12504075      -0.01665139      -0.00768039       0.03283536
C       -3.69000000       6.39127000      10.12590806      -0.00185993      -0.18380751       0.00154304
C        2.46000000       0.00000000      10.11766697       0.17791862      -0.10267382      -0.01243004
C        1.23000000       2.13042000      10.11767352      -0.00192684       0.20867562      -0.01245862
C        0.00000000       4.26085000      10.12641917       0.01715270      -0.00515868      -0.00967955
C       -1.23000000       6.39127000      10.12641986       0.00241644       0.02063221      -0.00968140
C        4.92000000       0.00000000      10.12642013      -0.01662886      -0.01234766      -0.00968257
C        3.69000000       2.13042000      10.12590946       0.15827746       0.09361994       0.00153957
C        2.46000000       4.26085000      10.12641943      -0.02094053      -0.00515115      -0.00968360
C        1.23000000       6.39127000      10.12712348      -0.00192202       0.00114467      -0.02803143
C        7.38000000       0.00000000      10.12641931       0.01282505      -0.01236182      -0.00968401
C        6.15000000       2.13042000      10.12504075      -0.00189529       0.01822390       0.03283289
C        4.92000000       4.26085000      10.12504039       0.01283353      -0.00766419       0.03284483
C        3.69000000       6.39127000      10.12641930      -0.00623304       0.02061687      -0.00968688
C       -0.00005000       1.42031000      10.11767196      -0.17790207       0.10268070      -0.01243485
C       -1.23005000       3.55073000      10.12642000      -0.00241438      -0.02034131      -0.00967001
C       -2.46005000       5.68116000      10.12641891      -0.01715640       0.00480448      -0.00969036
C       -3.69005000       7.81158000      10.11766850       0.00191724      -0.20863647      -0.01244921
C        2.45995000       1.42031000      10.11767106       0.18159853       0.10259844      -0.01245096
C        1.22995000       3.55073000      10.12591039       0.00185718       0.18409013       0.00154221
C       -0.00005000       5.68116000      10.12504087       0.01664616       0.00732706       0.03283455
C       -1.23005000       7.81158000      10.12590959       0.16196075      -0.09355135       0.00153075
C        4.91995000       1.42031000      10.12641885      -0.01281941       0.01237074      -0.00968235
C        3.68995000       3.55073000      10.12641969       0.00622942      -0.02032795      -0.00968941
C        2.45995000       5.68116000      10.12504035      -0.01283039       0.00731180       0.03283966
C        1.22995000       7.81158000      10.12504098       0.00189212      -0.01817111       0.03283643
C        7.37995000       1.42031000      10.12641989       0.01662917       0.01235465      -0.00966925
C        6.14995000       3.55073000      10.12712339       0.00192543      -0.00085017      -0.02803313
C        4.91995000       5.68116000      10.12641963       0.02094635       0.00480173      -0.00969666
C        3.68995000       7.81158000      10.12590946      -0.15827588      -0.09356506       0.00154048
Li       1.22998866       0.71013004      12.00000000      -0.00002218       0.00003946       0.00000000
65
Lattice="9.840000153 0.0 0.0 -4.920000076 8.521690105 0.0 0.0 0.0 24.0" Properties=species:S:1:pos:R:3:forces:R:3 energy=-596.5822827770784 stress="-0.06925200328414413 1.2681961804431894e-05 -1.3123001449767862e-17 1.2681961804431894e-05 -0.06923764433319664 6.396685152317509e-18 -1.3123001449767862e-17 6.396685152317509e-18 -4.3781008908485786e-05" free_energy=-596.5822827770784 pbc="T T T"
C        0.00000000       0.00000000      13.88767027      -0.18142288      -0.10248325       0.00247765
C        8.61000000       2.13042000      13.87480979      -0.16203001       0.09364404       0.00560156
C       -2.46000000       4.26085000      13.87287000      -0.01686159      -0.00780188      -0.01712813
C       -3.69000000       6.39127000      13.87481632      -0.00186044      -0.18389153       0.00559175
C        2.46000000       0.00000000      13.88767529       0.17773416      -0.10256938       0.00245277
C        1.23000000       2.13042000      13.88766698      -0.00192210       0.20847185       0.00249020
C        0.00000000       4.26085000      13.87272666       0.01695744      -0.00479857       0.00717879
C       -1.23000000       6.39127000      13.87272606       0.00262973       0.02028072       0.00719648
C        4.92000000       0.00000000      13.87272565      -0.01621735      -0.01235729       0.00719487
C        3.69000000       2.13042000      13.87481390       0.15835334       0.09366465       0.00559637
C        2.46000000       4.26085000      13.87272654      -0.02074547      -0.00479185       0.00719056
C        1.23000000       6.39127000      13.87318956      -0.00192174       0.00114422      -0.00426960
C        7.38000000       0.00000000      13.87272670       0.01241433      -0.01237244       0.00718332
C        6.15000000       2.13042000      13.87287020      -0.00189535       0.01846720      -0.01713089
C        4.92000000       4.26085000      13.87287021       0.01304333      -0.00778551      -0.01713225
C        3.69000000       6.39127000      13.87272700      -0.00644620       0.02026714       0.00719668
C       -0.00005000       1.42031000      13.88766817      -0.17772885       0.10257872       0.00247658
C       -1.23005000       3.55073000      13.87272502      -0.00262865      -0.01999211       0.00718292
C       -2.46005000       5.68116000      13.87272784      -0.01695864       0.00444403       0.00719208
C       -3.69005000       7.81158000      13.88767397       0.00191588      -0.20842161       0.00246584
C        2.45995000       1.42031000      13.88767034       0.18141752       0.10249353       0.00247734
C        1.22995000       3.55073000      13.87481196       0.00185714       0.18418205       0.00559820
C       -0.00005000       5.68116000      13.87286983       0.01685670       0.00744799      -0.01712801
C       -1.23005000       7.81158000      13.87481415       0.16203290      -0.09359267       0.00559377
C        4.91995000       1.42031000      13.87272741      -0.01240961       0.01238007       0.00718656
C        3.68995000       3.55073000      13.87272644       0.00644413      -0.01997807       0.00719413
C        2.45995000       5.68116000      13.87287066      -0.01304124       0.00743333      -0.01713639
C        1.22995000       7.81158000      13.87286949       0.00189248      -0.01841339      -0.01712665
C        7.37995000       1.42031000      13.87272520       0.01622011       0.01236498       0.00718430
C        6.14995000       3.55073000      13.87318979       0.00192566      -0.00085060      -0.00426954
C        4.91995000       5.68116000      13.87272704       0.02074946       0.00444069       0.00720104
C        3.68995000       7.81158000      13.87481384      -0.15835223      -0.09360876       0.00559598
C        0.00000000       0.00000000      10.11232973      -0.18142288      -0.10248325      -0.00247765
C        8.61000000       2.13042000      10.12519021      -0.16203001       0.09364404      -0.00560156
C       -2.46000000       4.26085000      10.12713000      -0.01686159      -0.00780188       0.01712813
C       -3.69000000       6.39127000      10.12518368      -0.00186044      -0.18389153      -0.00559175
C        2.46000000       0.00000000      10.11232471       0.17773416      -0.10256938      -0.00245277
C        1.23000000       2.13042000      10.11233302      -0.00192210       0.20847185      -0.00249020
C        0.00000000       4.26085000      10.12727334       0.01695744      -0.00479857      -0.00717879
C       -1.23000000       6.39127000      10.12727394       0.00262973       0.02028072      -0.00719648
C        4.92000000       0.00000000      10.12727435      -0.01621735      -0.01235729      -0.00719487
C        3.69000000       2.13042000      10.12518610       0.15835334       0.09366465      -0.00559637
C        2.46000000       4.26085000      10.12727346      -0.02074547      -0.00479185      -0.00719056
C        1.23000000       6.39127000      10.12681044      -0.00192174       0.00114422       0.00426960
C        7.38000000       0.00000000      10.12727330       0.01241433      -0.01237244      -0.00718332
C        6.15000000       2.13042000      10.12712980      -0.00189535       0.01846720       0.01713089
C        4.92000000       4.26085000      10.12712979       0.01304333      -0.00778551       0.01713225
C        3.69000000       6.39127000      10.12727300      -0.00644620       0.02026714      -0.00719668
C       -0.00005000       1.42031000      10.11233183      -0.17772885       0.10257872      -0.00247658
C       -1.23005000       3.55073000      10.12727498      -0.00262865      -0.01999211      -0.00718292
C       -2.46005000       5.68116000      10.12727216      -0.01695864       0.00444403      -0.00719208
C       -3.69005000       7.81158000      10.11232603       0.00191588      -0.20842161      -0.00246584
C        2.45995000       1.42031000      10.11232966       0.18141752       0.10249353      -0.00247734
C        1.22995000       3.55073000      10.12518804       0.00185714       0.18418205      -0.00559820
C       -0.00005000       5.68116000      10.12713017       0.01685670       0.00744799       0.01712801
C       -1.23005000       7.81158000      10.12518585       0.16203290      -0.09359267      -0.00559377
C        4.91995000       1.42031000      10.12727259      -0.01240961       0.01238007      -0.00718656
C        3.68995000       3.55073000      10.12727356       0.00644413      -0.01997807      -0.00719413
C        2.45995000       5.68116000      10.12712934      -0.01304124       0.00743333       0.01713639
C        1.22995000       7.81158000      10.12713051       0.00189248      -0.01841339       0.01712665
C        7.37995000       1.42031000      10.12727480       0.01622011       0.01236498      -0.00718430
C        6.14995000       3.55073000      10.12681021       0.00192566      -0.00085060       0.00426954
C        4.91995000       5.68116000      10.12727296       0.02074946       0.00444069      -0.00720104
C        3.68995000       7.81158000      10.12518616      -0.15835223      -0.09360876      -0.00559598
Li       1.22997952       0.71014621      12.00000000      -0.00000391       0.00000737      -0.00000000
65
Lattice="9.840000153 0.0 0.0 -4.920000076 8.521690105 0.0 0.0 0.0 24.0" Properties=species:S:1:pos:R:3:forces:R:3 energy=-596.582490415477 stress="-0.06925222557759088 1.2682859774591118e-05 7.287623965760232e-18 1.2682859774591118e-05 -0.06923786550404426 -1.2870611597773294e-17 7.287623965760232e-18 -1.2870611597773294e-17 -4.250034767090092e-05" free_energy=-596.582490415477 pbc="T T T"
C        0.00000000       0.00000000      13.88784725      -0.18129704      -0.10241117       0.00383104
C        8.61000000       2.13042000      13.87520990      -0.16215435       0.09371585       0.00822848
C       -2.46000000       4.26085000      13.87164656      -0.01694723      -0.00785123       0.00152446
C       -3.69000000       6.39127000      13.87521573      -0.00186047      -0.18403468       0.00823310
C        2.46000000       0.00000000      13.88785049       0.17760872      -0.10249707       0.00382577
C        1.23000000       2.13042000      13.88784485      -0.00192170       0.20832682       0.00383775