65
Lattice="9.840000153 0.0 0.0 -4.920000076 8.521690105 0.0 0.0 0.0 24.0" Properties=species:S:1:pos:R:3:forces:R:3 energy=-595.6605073032742 stress="-0.06712738542471093 1.3404175820914283e-05 -1.3977192234916252e-08 1.3404175820914283e-05 -0.06711153227358008 9.251388705321732e-09 -1.3977192234916252e-08 9.251388705321732e-09 -0.00622118958300897" free_energy=-595.6605073032742 pbc="T T T"
C        0.00000000       0.00000000      13.67500000      -0.00196221      -0.31668504       0.18868668
C        8.61000000       2.13042000      13.67500000      -0.27746442       0.16029046       0.18873423
C       -2.46000000       4.26085000      13.67500000      -0.00090888      -0.01990766       0.03158824
C       -3.69000000       6.39127000      13.67500000      -0.01939867       0.01235010       0.03157854
C        2.46000000       0.00000000      13.67500000       0.05942482      -0.03426517       0.06077997
C        1.23000000       2.13042000      13.67500000       0.27331679       0.16016047       0.18868986
C       -0.00000000       4.26085000      13.67500000      -0.00192987       0.07172247       0.06078515
C       -1.23000000       6.39127000      13.67500000      -0.03013958      -0.01514194       0.03532332
C        4.92000000       0.00000000      13.67500000      -0.00192243       0.03373318       0.03532351
C        3.69000000       2.13042000      13.67500000      -0.02036439       0.01073515       0.03157940
C        2.46000000       4.26085000      13.67500000      -0.00286409      -0.01987223       0.03158501
C        1.23000000       6.39127000      13.67500000       0.02628696      -0.01514095       0.03532530
C        7.38000000       0.00000000      13.67500000      -0.06330246      -0.03427939       0.06078353
C        6.15000000       2.13042000      13.67500000       0.01656170       0.01070476       0.03158855
C        4.92000000       4.26085000      13.67500000      -0.00193310       0.00085733       0.03624885
C        3.69000000       6.39127000      13.67500000       0.01555349       0.01232227       0.03158445
C       -0.00005000       1.42031000      13.67500000       0.00219489      -0.00130492       3.83148337
C       -1.23005000       3.55073000      13.67500000      -0.02192540       0.15435062       0.04820381
C       -2.46005000       5.68116000      13.67500000       0.03302757       0.01676502       0.02484519
C       -3.69005000       7.81158000      13.67500000       0.12445605      -0.09937337       0.04820443
C        2.45995000       1.42031000      13.67500000       0.14825178      -0.05815635       0.04820484
C        1.22995000       3.55073000      13.67500000       0.02572968       0.15430850       0.04821737
C       -0.00005000       5.68116000      13.67500000       0.00192414      -0.01519843       0.02181266
C       -1.23005000       7.81158000      13.67500000      -0.01021512       0.00585413       0.02181952
C        4.91995000       1.42031000      13.67500000       0.00191200      -0.03707111       0.02484472
C        3.68995000       3.55073000      13.67500000       0.01099277       0.00439034       0.02774930
C        2.45995000       5.68116000      13.67500000      -0.02918838       0.01675605       0.02484382
C        1.22995000       7.81158000      13.67500000       0.01403670       0.00584176       0.02181186
C        7.37995000       1.42031000      13.67500000      -0.14440876      -0.05809227       0.04820449
C        6.14995000       3.55073000      13.67500000      -0.00714855       0.00439042       0.02774275
C        4.91995000       5.68116000      13.67500000       0.00192249      -0.01167950       0.02774908
C        3.68995000       7.81158000      13.67500000      -0.12054293      -0.09934958       0.04821767
C        0.00000000       0.00000000      10.32500000       0.00210280      -0.30868852      -0.22539903
C        8.61000000       2.13042000      10.32500000      -0.26449906       0.15277119      -0.22545314
C       -2.46000000       4.26085000      10.32500000      -0.00332032      -0.02489654      -0.03925075
C       -3.69000000       6.39127000      10.32500000      -0.02103338       0.00608374      -0.03926287
C        2.46000000       0.00000000      10.32500000       0.17290549      -0.09984756      -0.00762929
C        1.23000000       2.13042000      10.32500000       0.26836620       0.15256792      -0.22540285
C       -0.00000000       4.26085000      10.32500000       0.00185553       0.19615110      -0.00762575
C       -1.23000000       6.39127000      10.32500000       0.01325817       0.00546353      -0.03370169
C        4.92000000       0.00000000      10.32500000       0.00189813      -0.01423664      -0.03370165
C        3.69000000       2.13042000      10.32500000      -0.01578700       0.01522771      -0.03926317
C        2.46000000       4.26085000      10.32500000       0.00714944      -0.02486456      -0.03926054
C        1.23000000       6.39127000      10.32500000      -0.00943363       0.00544696      -0.03369874
C        7.38000000       0.00000000      10.32500000      -0.16922493      -0.09986599      -0.00762584
C        6.15000000       2.13042000      10.32500000       0.01961479       0.01521256      -0.03925086
C        4.92000000       4.26085000      10.32500000       0.00193373      -0.00145496      -0.03212971
C        3.69000000       6.39127000      10.32500000       0.02481845       0.00606973      -0.03926035
C        1.23005000       0.71011000      10.32500000       0.25822935      -0.14908707      -0.21218835
C        0.00005000       2.84053000      10.32500000      -0.00206530       0.30183880      -0.21226789
C       -1.22995000       4.97096000      10.32500000       0.02121577      -0.00612846      -0.03587951
C       -2.45995000       7.10138000      10.32500000       0.00342365       0.02471970      -0.03586569
C        3.69005000       0.71011000      10.32500000      -0.01967667      -0.01531339      -0.03586591
C        2.46005000       2.84053000      10.32500000       0.16958937       0.10039182      -0.00502820
C        1.23005000       4.97096000      10.32500000      -0.02500216      -0.00612408      -0.03587762
C        0.00005000       7.10138000      10.32500000      -0.00192715       0.00113504      -0.02740483
C        6.15005000       0.71011000      10.32500000       0.01586423      -0.01533894      -0.03587880
C        4.92005000       2.84053000      10.32500000      -0.00189727       0.01434974      -0.02937799
C        3.69005000       4.97096000      10.32500000       0.00925153      -0.00540074      -0.02937445
C        2.46005000       7.10138000      10.32500000      -0.00724987       0.02470740      -0.03587670
C        8.61005000       0.71011000      10.32500000      -0.26214872      -0.14897160      -0.21226523
C        7.38005000       2.84053000      10.32500000      -0.17332369       0.10040276      -0.00503501
C        6.15005000       4.97096000      10.32500000      -0.01307703      -0.00542187      -0.02937783
C        4.92005000       7.10138000      10.32500000      -0.00185466      -0.19687257      -0.00502764
Li      -0.00005000       1.42031000      12.00000000       0.00007159      -0.00004137      -3.37363157
65
Lattice="9.840000153 0.0 0.0 -4.920000076 8.521690105 0.0 0.0 0.0 24.0" Properties=species:S:1:pos:R:3:forces:R:3 energy=-596.0616692993414 stress="-0.06715975011025807 1.3277341252146392e-05 -1.657827072145407e-07 1.3277341252146392e-05 -0.0671440472873576 1.0067709708910754e-07 -1.657827072145407e-07 1.0067709708910754e-07 -0.004385804384766144" free_energy=-596.0616692993414 pbc="T T T"
C        0.00000000       0.00000000      13.68106721      -0.00187675      -0.23664306       0.74388274
C        8.61000000       2.13042000      13.68106874      -0.20787609       0.12011248       0.74367034
C       -2.46000000       4.26085000      13.67601572      -0.00951101      -0.01870284      -0.02174013
C       -3.69000000       6.39127000      13.67601541      -0.02265039       0.00429709      -0.02174996
C        2.46000000       0.00000000      13.67695438       0.05273719      -0.03040412       0.09563075
C        1.23000000       2.13042000      13.68106731       0.20403890       0.12006306       0.74388000
C        0.00000000       4.26085000      13.67695454      -0.00192930       0.06399347       0.09564742
C       -1.23000000       6.39127000      13.67613582      -0.02233071      -0.01063647       0.02183796
C        4.92000000       0.00000000      13.67613583      -0.00191980       0.02471773       0.02183770
C        3.69000000       2.13042000      13.67601543      -0.01501589       0.01757770      -0.02174924
C        2.46000000       4.26085000      13.67601561       0.00573442      -0.01867475      -0.02174433
C        1.23000000       6.39127000      13.67613588       0.01848075      -0.01063397       0.02183624
C        7.38000000       0.00000000      13.67695449      -0.05660790      -0.03041501       0.09564717
C        6.15000000       2.13042000      13.67601573       0.01121814       0.01755204      -0.02174008
C        4.92000000       4.26085000      13.67616558      -0.00193263       0.00085703       0.03029695
C        3.69000000       6.39127000      13.67601560       0.01881634       0.00427797      -0.02174501
C       -0.00005000       1.42031000      13.79820118       0.00198114      -0.00117907      -0.16734530
C       -1.23005000       3.55073000      13.67654999      -0.02943581       0.14994183       0.01516352
C       -2.46005000       5.68116000      13.67579890       0.02979528       0.01490359       0.02996641
C       -3.69005000       7.81158000      13.67655001       0.11680713      -0.10363352       0.01514478
C        2.45995000       1.42031000      13.67655002       0.14811597      -0.04940151       0.01514687
C        1.22995000       3.55073000      13.67655043       0.03322925       0.14989774       0.01515307
C       -0.00005000       5.68116000      13.67570139       0.00192254      -0.00568662       0.03514668
C       -1.23005000       7.81158000      13.67570161      -0.00198222       0.00110093       0.03514834
C        4.91995000       1.42031000      13.67579888       0.00190791      -0.03334111       0.02996630
C        3.68995000       3.55073000      13.67589228       0.01216544       0.00506776       0.03860020
C        2.45995000       5.68116000      13.67579885      -0.02596231       0.01489350       0.02996981
C        1.22995000       7.81158000      13.67570136       0.00579851       0.00108735       0.03514624
C        7.37995000       1.42031000      13.67655001      -0.14434544      -0.04938371       0.01516376
C        6.14995000       3.55073000      13.67589207      -0.00832078       0.00506694       0.03859772
C        4.91995000       5.68116000      13.67589227       0.00192193      -0.01303406       0.03859986
C        3.68995000       7.81158000      13.67655044      -0.11297408      -0.10363902       0.01515120
C        0.00000000       0.00000000      10.31775230       0.00209553      -0.38274127      -0.28152227
C        8.61000000       2.13042000      10.31775056      -0.32863673       0.18980038      -0.28163281
C       -2.46000000       4.26085000      10.32373789       0.00068584      -0.03271756      -0.03220390
C       -3.69000000       6.39127000      10.32373750      -0.02579168       0.01345233      -0.03220654
C        2.46000000       0.00000000      10.32475468       0.17569148      -0.10145626      -0.03471628
C        1.23000000       2.13042000      10.31775218       0.33249390       0.18959981      -0.28152529
C        0.00000000       4.26085000      10.32475479       0.00186735       0.19934237      -0.03474453
C       -1.23000000       6.39127000      10.32391632       0.01406378       0.00592896      -0.03049782
C        4.92000000       0.00000000      10.32391632       0.00189790      -0.01516716      -0.03049768
C        3.69000000       2.13042000      10.32373749      -0.02454793       0.01566412      -0.03220672
C        2.46000000       4.26085000      10.32373758       0.00315088      -0.03268347      -0.03220826
C        1.23000000       6.39127000      10.32391642      -0.01023951       0.00591230      -0.03049680
C        7.38000000       0.00000000      10.32475479      -0.17198229      -0.10147181      -0.03474231
C        6.15000000       2.13042000      10.32373789       0.02838989       0.01565273      -0.03220385
C        4.92000000       4.26085000      10.32396687       0.00193380      -0.00145476      -0.02872714
C        3.69000000       6.39127000      10.32373759       0.02958905       0.01344108      -0.03220803
C        1.23005000       0.71011000      10.31817709       0.32189043      -0.18584108      -0.28382171
C        0.00005000       2.84053000      10.31817454      -0.00205688       0.37540685      -0.28392720
C       -1.22995000       4.97096000      10.32384630       0.02687976      -0.01394961      -0.03214048
C       -2.45995000       7.10138000      10.32384674      -0.00051877       0.03355227      -0.03213782
C        3.69005000       0.71011000      10.32384673      -0.02929721      -0.01631531      -0.03213813
C        2.46005000       2.84053000      10.32483832       0.17244977       0.10205891      -0.03712059
C        1.23005000       4.97096000      10.32384636      -0.03067953      -0.01394692      -0.03213962
C        0.00005000       7.10138000      10.32411880      -0.00192637       0.00113454      -0.02831247
C        6.15005000       0.71011000      10.32384632       0.02546989      -0.01633322      -0.03214028
C        4.92005000       2.84053000      10.32405535      -0.00189486       0.01508367      -0.02959290
C        3.69005000       4.97096000      10.32405547       0.00988716      -0.00576773      -0.02959355
C        2.46005000       7.10138000      10.32384639      -0.00331350       0.03353571      -0.03213912
C        8.61005000       0.71011000      10.31817462      -0.32585529      -0.18576153      -0.28392437
C        7.38005000       2.84053000      10.32483810      -0.17619966       0.10206471      -0.03710567
C        6.15005000       4.97096000      10.32405536      -0.01371154      -0.00579098      -0.02959279
C        4.92005000       7.10138000      10.32483834      -0.00186689      -0.20018241      -0.03711958
Li      -0.00004770       1.42030867      11.89152102       0.00008255      -0.00004904      -0.18313148
65
Lattice="9.840000153 0.0 0.0 -4.920000076 8.521690105 0.0 0.0 0.0 24.0" Properties=species:S:1:pos:R:3:forces:R:3 energy=-596.1570699274259 stress="-0.06734503003651748 1.3244371344125543e-05 -1.590387049149074e-08 1.3244371344125543e-05 -0.06732936389723573 1.1882389504193505e-08 -1.590387049149074e-08 1.1882389504193505e-08 -0.0040571740418042825" free_energy=-596.1570699274259 pbc="T T T"
C        0.00000000       0.00000000      13.73493954      -0.00185194      -0.30079185      -0.04523266
C        8.61000000       2.13042000      13.73492608      -0.26339992       0.15217045      -0.04524773
C       -2.46000000       4.26085000      13.67458638      -0.01035073      -0.01851960       0.00407245
C       -3.69000000       6.39127000      13.67458532      -0.02291100       0.00347948       0.00405411
C        2.46000000       0.00000000      13.68402282       0.06816630      -0.03931201      -0.01958646
C        1.23000000       2.13042000      13.73493946       0.25960538       0.15211699      -0.04523218
C        0.00000000       4.26085000      13.68402420      -0.00192889       0.08179114      -0.01956720
C       -1.23000000       6.39127000      13.67783380      -0.01984963      -0.00920569       0.03843162
C        4.92000000       0.00000000      13.67783379      -0.00191829       0.02185369       0.03843174
C        3.69000000       2.13042000      13.67458541      -0.01443833       0.01821209       0.00405555
C        2.46000000       4.26085000      13.67458596       0.00656335      -0.01849640       0.00406018
C        1.23000000       6.39127000      13.67783375       0.01600124      -0.00920235       0.03843238
C        7.38000000       0.00000000      13.68402412      -0.07202071      -0.03931395      -0.01956843
C        6.15000000       2.13042000      13.67458639       0.01063928       0.01818734       0.00407118
C        4.92000000       4.26085000      13.67847140      -0.00193189       0.00085679       0.06078381
C        3.69000000       6.39127000      13.67458589       0.01907592       0.00347057       0.00405746
C       -0.00005000       1.42031000      13.80123072       0.00194887      -0.00115891       0.53975887
C       -1.23005000       3.55073000      13.67782160      -0.02775088       0.12685529       0.32149096
C       -2.46005000       5.68116000      13.67803651       0.03268122       0.01656755      -0.05147597
C       -3.69005000       7.81158000      13.67782028       0.09762949      -0.09062358       0.32150531
C        2.45995000       1.42031000      13.67782045       0.12726023      -0.03929798       0.32150492
C        1.22995000       3.55073000      13.67782134       0.03153966       0.12681522       0.32155837
C       -0.00005000       5.68116000      13.67829716       0.00192377       0.00131877       0.00456863
C       -1.23005000       7.81158000      13.67829753       0.00408372      -0.00240131       0.00455346
C        4.91995000       1.42031000      13.67803648       0.00190969      -0.03667251      -0.05147623
C        3.68995000       3.55073000      13.67875795       0.01296025       0.00552298       0.00283457
C        2.45995000       5.68116000      13.67803670      -0.02884924       0.01656009      -0.05148851
C        1.22995000       7.81158000      13.67829710      -0.00026761      -0.00241641       0.00456775
C        7.37995000       1.42031000      13.67782164      -0.12351059      -0.03930076       0.32149134
C        6.14995000       3.55073000      13.67875753      -0.00910614       0.00552066       0.00282155
C        4.91995000       5.68116000      13.67875791       0.00192536      -0.01395019       0.00283459
C        3.68995000       7.81158000      13.67782122      -0.09383050      -0.09063487       0.32155920
C        0.00000000       0.00000000      10.29676216       0.00209363      -0.39798047      -0.23374442
C        8.61000000       2.13042000      10.29675231      -0.34182554       0.19741505      -0.23379810
C       -2.46000000       4.26085000      10.32128413       0.00054206      -0.03180638      -0.02356900
C       -3.69000000       6.39127000      10.32128350      -0.02507466       0.01287204      -0.02357655
C        2.46000000       0.00000000      10.32224511       0.17607617      -0.10167848      -0.10247477
C        1.23000000       2.13042000      10.29676181       0.34569014       0.19722096      -0.23374529
C        0.00000000       4.26085000      10.32224322       0.00186870       0.19977798      -0.10254746
C       -1.23000000       6.39127000      10.32160612       0.01496907       0.00645309      -0.01704871
C        4.92000000       0.00000000      10.32160613       0.00189661      -0.01621328      -0.01704889
C        3.69000000       2.13042000      10.32128348      -0.02368693       0.01533325      -0.02357688
C        2.46000000       4.26085000      10.32128346       0.00329490      -0.03177350      -0.02358247
C        1.23000000       6.39127000      10.32160630      -0.01114608       0.00643566      -0.01704418
C        7.38000000       0.00000000      10.32224338      -0.17235918      -0.10169109      -0.10254259
C        6.15000000       2.13042000      10.32128413       0.02752881       0.01532159      -0.02356862
C        4.92000000       4.26085000      10.32178929       0.00193301      -0.00145416      -0.02859131
C        3.69000000       6.39127000      10.32128349       0.02887291       0.01286127      -0.02358175
C        1.23005000       0.71011000      10.29707436       0.33505924      -0.19344371      -0.23754936
C        0.00005000       2.84053000      10.29706396      -0.00205676       0.39061200      -0.23757544
C       -1.22995000       4.97096000      10.32141024       0.02724754      -0.01337122      -0.02385741
C       -2.45995000       7.10138000      10.32141093       0.00016652       0.03358277      -0.02384467
C        3.69005000       0.71011000      10.32141090      -0.02898104      -0.01692399      -0.02384504
C        2.46005000       2.84053000      10.32216719       0.17142010       0.10146808      -0.10222526
C        1.23005000       4.97096000      10.32141037      -0.03104790      -0.01336775      -0.02384992
C        0.00005000       7.10138000      10.32198932      -0.00192656       0.00113467      -0.02992841
C        6.15005000       0.71011000      10.32141028       0.02515295      -0.01694075      -0.02385652
C        4.92005000       2.84053000      10.32182669      -0.00189404       0.01577315      -0.01864800
C        3.69005000       4.97096000      10.32182677       0.01048604      -0.00611344      -0.01865289
C        2.46005000       7.10138000      10.32141044      -0.00399916       0.03356509      -0.02384865
C        8.61005000       0.71011000      10.29706426      -0.33902326      -0.19336379      -0.23757619
C        7.38005000       2.84053000      10.32216801      -0.17516537       0.10146768      -0.10224311
C        6.15005000       4.97096000      10.32182671      -0.01430841      -0.00613649      -0.01864806
C        4.92005000       7.10138000      10.32216728      -0.00186995      -0.19899566      -0.10222396
Li      -0.00004152       1.42030500      11.86524783       0.00006900      -0.00004089       0.13578928
65
Lattice="9.840000153 0.0 0.0 -4.920000076 8.521690105 0.0 0.0 0.0 24.0" Properties=species:S:1:pos:R:3:forces:R:3 energy=-596.2829039287687 stress="-0.06716327876224046 1.3132474419095306e-05 -2.0148539271092714e-07 1.3132474419095306e-05 -0.06714774153846276 1.1816322889477633e-07 -2.0148539271092714e-07 1.1816322889477633e-07 -0.0028452400304162344" free_energy=-596.2829039287687 pbc="T T T"
C        0.00000000       0.00000000      13.78900075      -0.00184170      -0.25351052       0.28794432
C        8.61000000       2.13042000      13.78896766      -0.22236525       0.12848050       0.28807292
C       -2.46000000       4.26085000      13.67362937       0.00837075      -0.04143128       0.21116100
C       -3.69000000       6.39127000      13.67362442      -0.03340506       0.03116689       0.21128073
C        2.46000000       0.00000000      13.68884733       0.05106476      -0.02943812       0.45886286
C        1.23000000       2.13042000      13.78900054       0.21866332       0.12846866       0.28794309
C        0.00000000       4.26085000      13.68885329      -0.00193018       0.06206386       0.45883681
C       -1.23000000       6.39127000      13.68616149      -0.01811230      -0.00819973      -0.07184835
C        4.92000000       0.00000000      13.68616148      -0.00192091       0.01984614      -0.07184904
C        3.69000000       2.13042000      13.67362480      -0.04366341       0.01345663       0.21127764
C        2.46000000       4.26085000      13.67362655      -0.01218240      -0.04142095       0.21129403
C        1.23000000       6.39127000      13.68616144       0.01425861      -0.00819636      -0.07181984
C        7.38000000       0.00000000      13.68885299      -0.05493915      -0.02945012       0.45882830
C        6.15000000       2.13042000      13.67362917       0.03984110       0.01342962       0.21115590
C        4.92000000       4.26085000      13.69120850      -0.00193179       0.00085686      -0.17625382
C        3.69000000       6.39127000      13.67362597       0.02955540       0.03116641       0.21129208
C       -0.00005000       1.42031000      13.89439436       0.00188472      -0.00112069      -0.42080102
C       -1.23005000       3.55073000      13.73270262      -0.03853655       0.14999460      -0.17138173
C       -2.46005000       5.68116000      13.67203957       0.03039117       0.01523740      -0.02373805
C       -3.69005000       7.81158000      13.73270216       0.11225581      -0.11153467      -0.17136731
C        2.45995000       1.42031000      13.73270244       0.15268244      -0.04150952      -0.17136774
C        1.22995000       3.55073000      13.73271278       0.04234792       0.14994593      -0.17135897
C       -0.00005000       5.68116000      13.68202348       0.00192902       0.00339573      -0.00369614
C       -1.23005000       7.81158000      13.68202149       0.00588705      -0.00344257      -0.00371073
C        4.91995000       1.42031000      13.67203949       0.00191582      -0.03402442      -0.02373719
C        3.68995000       3.55073000      13.68250459       0.01682531       0.00774794      -0.01344602
C        2.45995000       5.68116000      13.67203795      -0.02654795       0.01523053      -0.02376895
C        1.22995000       7.81158000      13.68202323      -0.00206437      -0.00345994      -0.00369813
C        7.37995000       1.42031000      13.73270275      -0.14894091      -0.04152923      -0.17137453
C        6.14995000       3.55073000      13.68250178      -0.01296122       0.00774671      -0.01342707
C        4.91995000       5.68116000      13.68250453       0.00193129      -0.01840997      -0.01345083
C        3.68995000       7.81158000      13.73271264      -0.10845681      -0.11155982      -0.17135147
C        0.00000000       0.00000000      10.23392435       0.00206799      -0.38875351      -0.07797925
C        8.61000000       2.13042000      10.23389632      -0.33384075       0.19280638      -0.07787856
C       -2.46000000       4.26085000      10.31456252       0.00080412      -0.03613461      -0.05164292
C       -3.69000000       6.39127000      10.31456037      -0.02869076       0.01525568      -0.05160028
C        2.46000000       0.00000000      10.30234663       0.15582791      -0.08998854      -0.15818329
C        1.23000000       2.13042000      10.23392359       0.33768663       0.19263115      -0.07797567
C        0.00000000       4.26085000      10.30233037       0.00187275       0.17639967      -0.15823653
C       -1.23000000       6.39127000      10.31613219       0.01935499       0.00897967       0.02422439
C        4.92000000       0.00000000      10.31613219       0.00190105      -0.02127509       0.02422453
C        3.69000000       2.13042000      10.31456027      -0.02755933       0.01727286      -0.05160131
C        2.46000000       4.26085000      10.31455922       0.00304114      -0.03610610      -0.05162482
C        1.23000000       6.39127000      10.31613322      -0.01552810       0.00896512       0.02423604
C        7.38000000       0.00000000      10.30233151      -0.15210999      -0.09000531      -0.15823384
C        6.15000000       2.13042000      10.31456258       0.03140731       0.01725858      -0.05163984
C        4.92000000       4.26085000      10.31454873       0.00192945      -0.00145180      -0.02282896
C        3.69000000       6.39127000      10.31455938       0.03249773       0.01524648      -0.05162067
C        1.23005000       0.71011000      10.23347553       0.32939860      -0.19017458      -0.06887243
C        0.00005000       2.84053000      10.23345183      -0.00203824       0.38401766      -0.06879315
C       -1.22995000       4.97096000      10.31466095       0.03054562      -0.01486881      -0.05095775
C       -2.45995000       7.10138000      10.31466403       0.00050920       0.03719186      -0.05091116
C        3.69005000       0.71011000      10.31466392      -0.03193531      -0.01902508      -0.05091152
C        2.46005000       2.84053000      10.30212549       0.15177394       0.09013662      -0.15442229
C        1.23005000       4.97096000      10.31466240      -0.03435479      -0.01486916      -0.05097190
C        0.00005000       7.10138000      10.31458152      -0.00192749       0.00113524      -0.01801915
C        6.15005000       0.71011000      10.31466116       0.02809836      -0.01904756      -0.05095285
C        4.92005000       2.84053000      10.31618019      -0.00189958       0.02069417       0.02468815
C        3.69005000       4.97096000      10.31617943       0.01474913      -0.00857448       0.02467340
C        2.46005000       7.10138000      10.31466273      -0.00435231       0.03717890      -0.05096663
C        8.61005000       0.71011000      10.23345225      -0.33330501      -0.19008273      -0.06879613
C        7.38005000       2.84053000      10.30212453      -0.15548685       0.09010675      -0.15443399
C        6.15005000       4.97096000      10.31618021      -0.01857341      -0.00859223       0.02468850
C        4.92005000       7.10138000      10.30212588      -0.00187929      -0.17631746      -0.15442403
Li      -0.00002299       1.42029402      11.85778287       0.00001077      -0.00000620       0.34324119
65
Lattice="9.840000153 0.0 0.0 -4.920000076 8.521690105 0.0 0.0 0.0 24.0" Properties=species:S:1:pos:R:3:forces:R:3 energy=-596.3653830904047 stress="-0.06697781288117495 1.3059091412264226e-05 -3.20239908453531e-08 1.3059091412264226e-05 -0.06696235877809344 2.3504435911997585e-08 -3.20239908453531e-08 2.3504435911997585e-08 -0.0021492112486052725" free_energy=-596.3653830904047 pbc="T T T"
C        0.00000000       0.00000000      13.84813976      -0.00182766      -0.32701442      -0.10273569
C        8.61000000       2.13042000      13.84810185      -0.28601931       0.16523315      -0.10261298
C       -2.46000000       4.26085000      13.68802949       0.02138949      -0.05150459       0.07944184
C       -3.69000000       6.39127000      13.68803032      -0.03562798       0.04747833       0.07954155
C        2.46000000       0.00000000      13.72506544       0.06862589      -0.03957688       0.21186345
C        1.23000000       2.13042000      13.84813937       0.28232722       0.16521077      -0.10273969