77
Lattice="10.722900391 0.0 0.0 -5.361450195 9.286304141 0.0 0.0 0.0 24.0" Properties=species:S:1:pos:R:3:forces:R:3 energy=-707.1396684443861 stress="-0.06672289783089985 4.1234493881810986e-07 -4.3744469019234436e-08 4.1234493881810986e-07 -0.06672391540093411 3.347399846668796e-08 -4.3744469019234436e-08 3.347399846668796e-08 -0.00553437507074741" free_energy=-707.1396684443861 pbc="T T T"
C        0.00000000       0.00000000      13.67500000      -0.12601277      -0.29121630       0.18876886
C       -2.82184000       5.86504000      13.67500000       0.00077144      -0.03082247       0.03607025
C       -3.10407000       8.30883000      13.67500000       0.04613059      -0.05851639       0.06127346
C       -0.28223000       2.44378000      13.67500000      -0.18505599       0.25366282       0.18870927
C       -0.56435000       4.88757000      13.67500000      -0.00531954      -0.02272418       0.03247222
C       -0.84652000       7.33126000      13.67500000       0.01501559       0.01140168       0.03516029
C        1.97532000       1.46621000      13.67500000       0.31214221       0.04078474       0.18874804
C        1.69309000       3.91000000      13.67500000       0.02644272       0.06680006       0.06127353
C        1.41087000       6.35378000      13.67500000      -0.01427046       0.00949897       0.03516603
C        1.12875000       8.79757000      13.67500000      -0.00167751      -0.01973034       0.03516427
C        4.23270000       0.48874000      13.67500000      -0.01320837       0.01317481       0.03248813
C        3.95058000       2.93252000      13.67500000      -0.01116955      -0.01846209       0.03248855
C        3.66836000       5.37631000      13.67500000       0.02717316       0.01404304       0.03606946
C        3.38613000       7.82009000      13.67500000       0.02418134       0.00316470       0.03248920
C        6.20797000       1.95505000      13.67500000      -0.02348364       0.01404455       0.03606282
C        5.92580000       4.39874000      13.67500000       0.00008666       0.00302043       0.03414984
C        5.64368000       6.84252000      13.67500000      -0.01563120       0.01616304       0.03248277
C        8.46552000       0.97748000      13.67500000      -0.07660234      -0.00755342       0.06126816
C        8.18329000       3.42126000      13.67500000       0.01877210       0.00319024       0.03249213
C       -4.51493000       8.14585000      13.67500000       0.07399996      -0.13579607       0.04856231
C       -1.97521000       4.72459000      13.67500000      -0.02208503       0.02231971       0.02889088
C       -2.25744000       7.16838000      13.67500000      -0.00672009       0.01811686       0.02153605
C        0.56440000       1.30333000      13.67500000      -0.00190502       0.00071911       3.83161973
C        0.28217000       3.74712000      13.67500000       0.04030347       0.15194000       0.04857881
C       -0.00005000       6.19090000      13.67500000       0.01942330       0.02013785       0.02819747
C       -0.28212000       8.63459000      13.67500000       0.00757212      -0.02278567       0.02820030
C        2.82178000       0.32586000      13.67500000       0.11360078      -0.11382609       0.04859342
C        2.53956000       2.76964000      13.67500000       0.08784411       0.12926025       0.04857058
C        2.25749000       5.21333000      13.67500000      -0.01525668      -0.01002989       0.02154232
C        1.97527000       7.65711000      13.67500000      -0.02747125       0.00305051       0.02819536
C        4.79710000       1.79207000      13.67500000       0.02584330       0.00646639       0.02889958
C        4.51488000       4.23585000      13.67500000       0.00917886       0.01788211       0.02771833
C        4.23276000       6.67964000      13.67500000      -0.01093359      -0.02581567       0.02888771
C        3.95053000       9.12342000      13.67500000      -0.15091117      -0.04247438       0.04858193
C        7.05449000       0.81459000      13.67500000       0.02113073      -0.00297585       0.02153099
C        6.77237000       3.25838000      13.67500000      -0.01913196      -0.00269816       0.02771894
C        6.49014000       5.70216000      13.67500000       0.01374043      -0.01976611       0.02772352
C        9.02981000       2.28081000      13.67500000      -0.15648240       0.00629264       0.04856130
C        0.00000000       0.00000000      10.32500000      -0.12204051      -0.28143562      -0.22550213
C       -2.82184000       5.86504000      10.32500000      -0.00044610       0.01397857      -0.03369094
C       -3.10407000       8.30883000      10.32500000       0.12347951      -0.16009286      -0.00772821
C       -0.28223000       2.44378000      10.32500000      -0.17913391       0.24535167      -0.22549981
C       -0.56435000       4.88757000      10.32500000      -0.02679604      -0.01280328      -0.04107815
C       -0.84652000       7.33126000      10.32500000      -0.00092016       0.00783964      -0.03385437
C        1.97532000       1.46621000      10.32500000       0.30105674       0.03826462      -0.22552204
C        1.69309000       3.91000000      10.32500000       0.07763231       0.18066276      -0.00771936
C        1.41087000       6.35378000      10.32500000      -0.00169509      -0.00155232      -0.03385610
C        1.12875000       8.79757000      10.32500000       0.00270352      -0.00259144      -0.03385599
C        4.23270000       0.48874000      10.32500000       0.00576243       0.02800752      -0.04108661
C        3.95058000       2.93252000      10.32500000       0.00811613      -0.02572756      -0.04078183
C        3.66836000       5.37631000      10.32500000      -0.01067273      -0.00925152      -0.03369168
C        3.38613000       7.82009000      10.32500000       0.02433793      -0.02235507      -0.04108287
C        6.20797000       1.95505000      10.32500000       0.01444381      -0.00949546      -0.03369186
C        5.92580000       4.39874000      10.32500000      -0.00013185       0.00146895      -0.03271160
C        5.64368000       6.84252000      10.32500000      -0.03174049       0.00593173      -0.04079473
C        8.46552000       0.97748000      10.32500000      -0.19874050      -0.02088936      -0.00772673
C        8.18329000       3.42126000      10.32500000       0.01664417       0.02295959      -0.04079030
C       -3.66836000       7.00549000      10.32500000       0.02715802       0.00867581      -0.03742285
C       -1.12869000       3.58414000      10.32500000      -0.11977981       0.16294068      -0.00527214
C       -1.41092000       6.02793000      10.32500000       0.00074927      -0.01381261      -0.02913504
C       -1.69304000       8.47171000      10.32500000      -0.02238050      -0.02296313      -0.03707903
C        1.41092000       0.16288000      10.32500000       0.17741417      -0.23847179      -0.21239411
C        1.12869000       2.60667000      10.32500000       0.12121414       0.27315465      -0.21237890
C        0.84657000       5.05045000      10.32500000       0.02654278      -0.00474029      -0.03709206
C        0.56435000       7.49423000      10.32500000       0.00207135      -0.00050695      -0.02854134
C        3.38618000       1.62919000      10.32500000       0.19630496       0.02283259      -0.00525463
C        3.10396000       4.07297000      10.32500000      -0.01871363       0.01612854      -0.03742537
C        2.82189000       6.51666000      10.32500000       0.00617957       0.01118195      -0.02913314
C        2.53967000       8.96045000      10.32500000      -0.01221512       0.02923662      -0.03708780
C        5.64357000       0.65171000      10.32500000      -0.00919538       0.00452993      -0.02913834
C        5.36150000       3.09540000      10.32500000      -0.00830568       0.00629795      -0.02941867
C        5.07928000       5.53919000      10.32500000       0.00652596       0.00194221      -0.02941505
C        4.79705000       7.98297000      10.32500000      -0.07661574      -0.18161058      -0.00524907
C        7.61889000       2.11793000      10.32500000      -0.00312494      -0.02932852      -0.03741874
C        7.33666000       4.56171000      10.32500000       0.00219151      -0.00746677      -0.02941657
C        9.87638000       1.14045000      10.32500000      -0.29791817      -0.03630167      -0.21239235
Li       0.56440000       1.30333000      12.00000000       0.00001376       0.00006936      -3.37357629
77
Lattice="10.722900391 0.0 0.0 -5.361450195 9.286304141 0.0 0.0 0.0 24.0" Properties=species:S:1:pos:R:3:forces:R:3 energy=-707.5413252637354 stress="-0.06675285726850468 4.3846824073308706e-07 6.350404562331893e-08 4.3846824073308706e-07 -0.06675388871687428 -3.052678208543273e-08 6.350404562331893e-08 -3.052678208543273e-08 -0.003985987845502033" free_energy=-707.5413252637354 pbc="T T T"
C        0.00000000       0.00000000      13.68107394      -0.09410192      -0.21753689       0.74431888
C       -2.82184000       5.86504000      13.67616062       0.00253399      -0.02910061       0.02687113
C       -3.10407000       8.30883000      13.67697157       0.04157085      -0.05239308       0.09587125
C       -0.28223000       2.44378000      13.68107202      -0.13739993       0.18936093       0.74442204
C       -0.56435000       4.88757000      13.67604485      -0.01159379      -0.01727125      -0.01919655
C       -0.84652000       7.33126000      13.67613134       0.01381208       0.00678405       0.02557482
C        1.97532000       1.46621000      13.68107327       0.23247930       0.03145204       0.74432073
C        1.69309000       3.91000000      13.67697157       0.02341850       0.05978966       0.09586400
C        1.41087000       6.35378000      13.67613152      -0.00967159       0.01076622       0.02557760
C        1.12875000       8.79757000      13.67613147      -0.00507229      -0.01637719       0.02557537
C        4.23270000       0.48874000      13.67604536      -0.00535646       0.01588800      -0.01919739
C        3.95058000       2.93252000      13.67604537      -0.00357826      -0.01950791      -0.01912298
C        3.66836000       5.37631000      13.67616059       0.02479921       0.01470879       0.02687225
C        3.38613000       7.82009000      13.67604539       0.02259463      -0.00500151      -0.01918886
C        6.20797000       1.95505000      13.67616038      -0.02287220       0.01166028       0.02686766
C        5.92580000       4.39874000      13.67609883       0.00008721       0.00301648       0.02661433
C        5.64368000       6.84252000      13.67604518      -0.02033330       0.01010151      -0.01912706
C        8.46552000       0.97748000      13.67697140      -0.06900999      -0.00666623       0.09585105
C        8.18329000       3.42126000      13.67604549       0.01589164       0.01029024      -0.01912784
C       -4.51493000       8.14585000      13.67656257       0.06568485      -0.13625833       0.01547599
C       -1.97521000       4.72459000      13.67592961      -0.02207913       0.02304537       0.03920576
C       -2.25744000       7.16838000      13.67569296      -0.00152670       0.01074033       0.03520959
C        0.56440000       1.30333000      13.79828846      -0.00186875       0.00061344      -0.16954787
C        0.28217000       3.74712000      13.67656310       0.03207314       0.15047783       0.01543807
C       -0.00005000       6.19090000      13.67590730       0.01792427       0.01586675       0.03180708
C       -0.28212000       8.63459000      13.67590739       0.00462804      -0.01935836       0.03181517
C        2.82178000       0.32586000      13.67656357       0.11643862      -0.10590446       0.01542153
C        2.53956000       2.76964000      13.67656284       0.09242783       0.12234030       0.01546222
C        2.25749000       5.21333000      13.67569316      -0.01146115      -0.00184791       0.03521374
C        1.97527000       7.65711000      13.67590723      -0.02302398       0.00388821       0.03181146
C        4.79710000       1.79207000      13.67592989       0.02646573       0.00609417       0.03921518
C        4.51488000       4.23585000      13.67589188       0.00755606       0.01496860       0.03163734
C        4.23276000       6.67964000      13.67592951      -0.01156316      -0.02617210       0.03920759
C        3.95053000       9.12342000      13.67656320      -0.14554802      -0.04887313       0.01543836
C        7.05449000       0.81459000      13.67569279       0.01214268      -0.00378546       0.03520778
C        6.77237000       3.25838000      13.67589190      -0.01580285      -0.00264906       0.03163829
C        6.49014000       5.70216000      13.67589205       0.01202479      -0.01689922       0.03164035
C        9.02981000       2.28081000      13.67656254      -0.15267634       0.01373002       0.01547298
C        0.00000000       0.00000000      10.31774411      -0.15146132      -0.34938798      -0.28168940
C       -2.82184000       5.86504000      10.32391594      -0.00036696       0.01411810      -0.03080633
C       -3.10407000       8.30883000      10.32475133       0.12523384      -0.16239925      -0.03564646
C       -0.28223000       2.44378000      10.31774418      -0.22327123       0.30479163      -0.28166945
C       -0.56435000       4.88757000      10.32367825      -0.02694151      -0.02133671      -0.03281034
C       -0.84652000       7.33126000      10.32391068      -0.00036046       0.00747639      -0.03137574
C        1.97532000       1.46621000      10.31774347       0.37462891       0.04672399      -0.28171110
C        1.69309000       3.91000000      10.32475162       0.07877086       0.18333886      -0.03565094
C        1.41087000       6.35378000      10.32391063      -0.00166216      -0.00088602      -0.03137891
C        1.12875000       8.79757000      10.32391063       0.00211055      -0.00289600      -0.03137903
C        4.23270000       0.48874000      10.32367797      -0.00154382       0.03239486      -0.03281348
C        3.95058000       2.93252000      10.32368778       0.00171610      -0.03176290      -0.03287278
C        3.66836000       5.37631000      10.32391592      -0.01083207      -0.00925085      -0.03080705
C        3.38613000       7.82009000      10.32367809       0.03179299      -0.01822268      -0.03280787
C        6.20797000       1.95505000      10.32391591       0.01452303      -0.00963315      -0.03080718
C        5.92580000       4.39874000      10.32394745      -0.00013246       0.00146777      -0.03157811
C        5.64368000       6.84252000      10.32368736      -0.03377665       0.01449687      -0.03287703
C        8.46552000       0.97748000      10.32475138      -0.20162339      -0.02123360      -0.03566042
C        8.18329000       3.42126000      10.32368751       0.02507190       0.02043379      -0.03287893
C       -3.66836000       7.00549000      10.32379586       0.02773825       0.01808170      -0.03265716
C       -1.12869000       3.58414000      10.32483036      -0.12161131       0.16538850      -0.03817074
C       -1.41092000       6.02793000      10.32406253       0.00071518      -0.01387832      -0.03022112
C       -1.69304000       8.47171000      10.32380692      -0.03178686      -0.02059100      -0.03266179
C        1.41092000       0.16288000      10.31816588       0.22126315      -0.29753666      -0.28402631
C        1.12869000       2.60667000      10.31816637       0.15043136       0.34068162      -0.28403483
C        0.84657000       5.05045000      10.32380650       0.02918213      -0.01405680      -0.03266873
C        0.56435000       7.49423000      10.32408164       0.00207093      -0.00050648      -0.03172747
C        3.38618000       1.62919000      10.32483092       0.19934186       0.02320356      -0.03816548
C        3.10396000       4.07297000      10.32379578      -0.02714690       0.01192874      -0.03265751
C        2.82189000       6.51666000      10.32406259       0.00625435       0.01118231      -0.03022183
C        2.53967000       8.96045000      10.32380664      -0.00546854       0.03618397      -0.03266565
C        5.64357000       0.65171000      10.32406243      -0.00923613       0.00459256      -0.03022445
C        5.36150000       3.09540000      10.32405341      -0.00778779       0.00665495      -0.03089705
C        5.07928000       5.53919000      10.32405352       0.00657644       0.00131651      -0.03089781
C        4.79705000       7.98297000      10.32483110      -0.07781013      -0.18443912      -0.03817582
C        7.61889000       2.11793000      10.32379599       0.00473828      -0.03454268      -0.03265357
C        7.33666000       4.56171000      10.32405348       0.00162301      -0.00719578      -0.03089730
C        9.87638000       1.14045000      10.31816594      -0.37099288      -0.04471264      -0.28400683
Li       0.56440044       1.30333223      11.89144982       0.00001581       0.00003143      -0.18155905
77
Lattice="10.722900391 0.0 0.0 -5.361450195 9.286304141 0.0 0.0 0.0 24.0" Properties=species:S:1:pos:R:3:forces:R:3 energy=-707.6378429251782 stress="-0.06691555950618075 4.300778479440002e-07 5.044492955697536e-08 4.300778479440002e-07 -0.0669165569043536 -1.1076805349128256e-07 5.044492955697536e-08 -1.1076805349128256e-07 -0.003704295398223282" free_energy=-707.6378429251782 pbc="T T T"
C        0.00000000       0.00000000      13.73498473      -0.11966707      -0.27654509      -0.04540812
C       -2.82184000       5.86504000      13.67822237       0.00178579      -0.02725572       0.04474373
C       -3.10407000       8.30883000      13.68406139       0.05194439      -0.06651314      -0.01999301
C       -0.28223000       2.44378000      13.73498995      -0.17574885       0.24101630      -0.04538929
C       -0.56435000       4.88757000      13.67480185      -0.01373342      -0.01617735       0.00280471
C       -0.84652000       7.33126000      13.67809691       0.01570355       0.00582913       0.03800974
C        1.97532000       1.46621000      13.73498411       0.29639231       0.03881127      -0.04531324
C        1.69309000       3.91000000      13.68406088       0.03045783       0.07581928      -0.01996575
C        1.41087000       6.35378000      13.67809731      -0.00979005       0.01288294       0.03801176
C        1.12875000       8.79757000      13.67809709      -0.00684582      -0.01753787       0.03800969
C        4.23270000       0.48874000      13.67480236      -0.00332623       0.01718878       0.00281710
C        3.95058000       2.93252000      13.67480769      -0.00172670      -0.02023633       0.00181001
C        3.66836000       5.37631000      13.67822242       0.02357737       0.01313801       0.04474426
C        3.38613000       7.82009000      13.67480301       0.02271993      -0.00740103       0.00282545
C        6.20797000       1.95505000      13.67822185      -0.02090104       0.01138961       0.04474691
C        5.92580000       4.39874000      13.67813465       0.00008695       0.00301139       0.04055785
C        5.64368000       6.84252000      13.67480719      -0.02188992       0.00885047       0.00180683
C        8.46552000       0.97748000      13.68405976      -0.08641528      -0.00860599      -0.01998573
C        8.18329000       3.42126000      13.67480747       0.01557920       0.01227164       0.00179895
C       -4.51493000       8.14585000      13.67785970       0.05300064      -0.11643974       0.32217924
C       -1.97521000       4.72459000      13.67884407      -0.02211405       0.02359135       0.00533228
C       -2.25744000       7.16838000      13.67829294       0.00091274       0.00589840       0.00912447
C        0.56440000       1.30333000      13.80130313      -0.00187849       0.00061724       0.53798541
C        0.28217000       3.74712000      13.67785758       0.02418799       0.12815865       0.32217325
C       -0.00005000       6.19090000      13.67829054       0.01892586       0.02073426      -0.01265864
C       -0.28212000       8.63459000      13.67829122       0.00834413      -0.02266327      -0.01266540
C        2.82178000       0.32586000      13.67785693       0.10105476      -0.08790100       0.32203179
C        2.53956000       2.76964000      13.67785901       0.08161526       0.10146611       0.32219410
C        2.25749000       5.21333000      13.67829346      -0.00849081       0.00268606       0.00911409
C        1.97527000       7.65711000      13.67829078      -0.02774089       0.00232517      -0.01265162
C        4.79710000       1.79207000      13.67884505       0.02695489       0.00585265       0.00532288
C        4.51488000       4.23585000      13.67826111       0.00898620       0.01809544      -0.01201218
C        4.23276000       6.67964000      13.67884408      -0.01202157      -0.02646980       0.00531346
C        3.95053000       9.12342000      13.67785772      -0.12229096      -0.04454986       0.32212373
C        7.05449000       0.81459000      13.67829263       0.00672953      -0.00348041       0.00911436
C        6.77237000       3.25838000      13.67826120      -0.01922199      -0.00297577      -0.01202293
C        6.49014000       5.70216000      13.67826151       0.01401783      -0.01969386      -0.01201009
C        9.02981000       2.28081000      13.67785944      -0.12915035       0.01479649       0.32216554
C        0.00000000       0.00000000      10.29673327      -0.15748801      -0.36331712      -0.23403694
C       -2.82184000       5.86504000      10.32158249      -0.00017485       0.01375947      -0.02397110
C       -3.10407000       8.30883000      10.32217465       0.12533804      -0.16259634      -0.10355270
C       -0.28223000       2.44378000      10.29673478      -0.23232594       0.31697514      -0.23406878
C       -0.56435000       4.88757000      10.32117249      -0.02654020      -0.02043160      -0.02449851
C       -0.84652000       7.33126000      10.32153592       0.00031392       0.00666344      -0.02358117
C        1.97532000       1.46621000      10.29673100       0.38971201       0.04846382      -0.23406186
C        1.69309000       3.91000000      10.32217465       0.07889123       0.18352905      -0.10359356
C        1.41087000       6.35378000      10.32153563      -0.00129747       0.00010288      -0.02358393
C        1.12875000       8.79757000      10.32153562       0.00107164      -0.00307415      -0.02358346
C        4.23270000       0.48874000      10.32117196      -0.00096084       0.03159616      -0.02449019
C        3.95058000       2.93252000      10.32117874       0.00215805      -0.03085675      -0.02462355
C        3.66836000       5.37631000      10.32158242      -0.01061789      -0.00890486      -0.02397214
C        3.38613000       7.82009000      10.32117250       0.03080977      -0.01832640      -0.02449491
C        6.20797000       1.95505000      10.32158240       0.01411541      -0.00961867      -0.02397163
C        5.92580000       4.39874000      10.32156274      -0.00013237       0.00146675      -0.02871586
C        5.64368000       6.84252000      10.32117797      -0.03321387       0.01366170      -0.02463139
C        8.46552000       0.97748000      10.32217371      -0.20184724      -0.02122565      -0.10356393
C        8.18329000       3.42126000      10.32117799       0.02406438       0.02036319      -0.02462209
C       -3.66836000       7.00549000      10.32131548       0.02825810       0.01772270      -0.02453501
C       -1.12869000       3.58414000      10.32208307      -0.12078163       0.16430325      -0.10325399
C       -1.41092000       6.02793000      10.32178887       0.00049121      -0.01316862      -0.02535095
C       -1.69304000       8.47171000      10.32132757      -0.03157138      -0.02119568      -0.02465009
C        1.41092000       0.16288000      10.29703987       0.23032420      -0.30974654      -0.23786092
C        1.12869000       2.60667000      10.29703981       0.15647079       0.35464495      -0.23784004
C        0.84657000       5.05045000      10.32132660       0.02959975      -0.01356978      -0.02464968
C        0.56435000       7.49423000      10.32170272       0.00206955      -0.00050630      -0.03031948
C        3.38618000       1.62919000      10.32208408       0.19799141       0.02302793      -0.10329667
C        3.10396000       4.07297000      10.32131536      -0.02709879       0.01255941      -0.02454149
C        2.82189000       6.51666000      10.32178889       0.00575496       0.01063210      -0.02535030
C        2.53967000       8.96045000      10.32132698      -0.00609988       0.03629961      -0.02465470
C        5.64357000       0.65171000      10.32178852      -0.00851066       0.00443317      -0.02535267
C        5.36150000       3.09540000      10.32173035      -0.00689013       0.00704089      -0.02503624
C        5.07928000       5.53919000      10.32173042       0.00646339       0.00034757      -0.02503906
C        4.79705000       7.98297000      10.32208354      -0.07728684      -0.18318648      -0.10330193
C        7.61889000       2.11793000      10.32131589       0.00416785      -0.03481465      -0.02454799
C        7.33666000       4.56171000      10.32173040       0.00083787      -0.00661242      -0.02504018
C        9.87638000       1.14045000      10.29704132      -0.38609714      -0.04644971      -0.23783149
Li       0.56440163       1.30333475      11.86516420       0.00000791       0.00002411       0.13728503
77
Lattice="10.722900391 0.0 0.0 -5.361450195 9.286304141 0.0 0.0 0.0 24.0" Properties=species:S:1:pos:R:3:forces:R:3 energy=-707.7616926548412 stress="-0.06679533382150674 4.629863354158748e-07 -6.234478156914074e-08 4.629863354158748e-07 -0.06679629754466773 -9.594435722508708e-08 -6.234478156914074e-08 -9.594435722508708e-08 -0.0026913222740940243" free_energy=-707.7616926548412 pbc="T T T"
C        0.00000000       0.00000000      13.78694845      -0.10059273      -0.23251406       0.28633718
C       -2.82184000       5.86504000      13.68775196       0.00040497      -0.02695322      -0.08131448
C       -3.10407000       8.30883000      13.68861992       0.04082704      -0.05198066       0.46354500
C       -0.28223000       2.44378000      13.78696458      -0.14718359       0.20252514       0.28630301
C       -0.56435000       4.88757000      13.67388897      -0.00410673      -0.04184141       0.26165912
C       -0.84652000       7.33126000      13.68642792       0.01769905       0.00438493      -0.08183977
C        1.97532000       1.46621000      13.78696328       0.24875296       0.03332022       0.28618450
C        1.69309000       3.91000000      13.68862326       0.02340220       0.05890073       0.46362702
C        1.41087000       6.35378000      13.68642890      -0.00953894       0.01533366      -0.08184721
C        1.12875000       8.79757000      13.68642816      -0.00909420      -0.01854641      -0.08182061
C        4.23270000       0.48874000      13.67389150      -0.03033419       0.02167903       0.26148828
C        3.95058000       2.93252000      13.67373926      -0.02676089      -0.03061729       0.25815727
C        3.66836000       5.37631000      13.68775218       0.02400923       0.01178331      -0.08134973
C        3.38613000       7.82009000      13.67389418       0.04013152       0.01375869       0.26157571
C        6.20797000       1.95505000      13.68775165      -0.01994968       0.01243978      -0.08133962
C        5.92580000       4.39874000      13.68695647       0.00008504       0.00300762      -0.14477911
C        5.64368000       6.84252000      13.67373790      -0.01836730       0.03572724       0.25802162
C        8.46552000       0.97748000      13.68861786      -0.06825906      -0.00623430       0.46354657
C        8.18329000       3.42126000      13.67373688       0.03707976      -0.00421820       0.25806917
C       -4.51493000       8.14585000      13.73156686       0.05954794      -0.13943689      -0.17213245
C       -1.97521000       4.72459000      13.68291686      -0.02553167       0.02773280      -0.03405581
C       -2.25744000       7.16838000      13.68263499       0.00053887       0.00567575      -0.01863833
C        0.56440000       1.30333000      13.89191914      -0.00188276       0.00058832      -0.40672597
C        0.28217000       3.74712000      13.73156087       0.02522494       0.15151476      -0.17200354
C       -0.00005000       6.19090000      13.67885934       0.01861022       0.00979412       0.02926768
C       -0.28212000       8.63459000      13.67885957      -0.00097185      -0.01692525       0.02929779
C        2.82178000       0.32586000      13.73153602       0.12074228      -0.10043655      -0.17182800
C        2.53956000       2.76964000      13.73156754       0.09826913       0.11861626      -0.17213078
C        2.25749000       5.21333000      13.68263418      -0.00811225       0.00246870      -0.01862288
C        1.97527000       7.65711000      13.67886105      -0.01811742       0.00752427       0.02929935
C        4.79710000       1.79207000      13.68291710       0.03223942       0.00674932      -0.03400731
C        4.51488000       4.23585000      13.67891938       0.00122925       0.01001413       0.03114433
C        4.23276000       6.67964000      13.68291396      -0.01389598      -0.03149424      -0.03401929
C        3.95053000       9.12342000      13.73155300      -0.14302780      -0.05534017      -0.17192606
C        7.05449000       0.81459000      13.68263288       0.00672670      -0.00304743      -0.01863564
C        6.77237000       3.25838000      13.67891781      -0.00834421      -0.00565389       0.03114479
C        6.49014000       5.70216000      13.67892039       0.01089636      -0.00893787       0.03114501
C        9.02981000       2.28081000      13.73156415      -0.15232023       0.02062774      -0.17212923
C        0.00000000       0.00000000      10.23563273      -0.15339380      -0.35389182      -0.08225042