77
Lattice="10.722900391 0.0 0.0 -5.361450195 9.286304141 0.0 0.0 0.0 24.0" Properties=species:S:1:pos:R:3:forces:R:3 energy=-707.5822786220839 stress="-0.0670790558480032 1.3244946077571902e-07 -1.3199533775432355e-17 1.3244946077571902e-07 -0.06708016494505933 4.206365627047704e-18 -1.3199533775432355e-17 4.206365627047704e-18 -0.004271166947287478" free_energy=-707.5822786220839 pbc="T T T"
C        0.00000000       0.00000000      13.67500000      -0.07311530      -0.16928607       0.02475002
C       -2.82184000       5.86504000      13.67500000      -0.00082957      -0.00567886       0.04936851
C       -3.10407000       8.30883000      13.67500000       0.02676292       0.01764804       0.05762388
C       -0.28223000       2.44378000      13.67500000      -0.27866654      -0.03346201       0.25328964
C       -0.56435000       4.88757000      13.67500000      -0.10985223       0.14616489       0.02474491
C       -0.84652000       7.33126000      13.67500000      -0.00252282      -0.00950908       0.04925232
C        1.97532000       1.46621000      13.67500000       0.16667670      -0.22401303       0.25324734
C        1.69309000       3.91000000      13.67500000       0.11189913       0.26221755       0.25328272
C        1.41087000       6.35378000      13.67500000       0.02925686      -0.01623016       0.05724812
C        1.12875000       8.79757000      13.67500000      -0.00066658      -0.00071382       0.04891818
C        4.23270000       0.48874000      13.67500000      -0.02486053      -0.01811697       0.05724545
C        3.95058000       2.93252000      13.67500000       0.17884014       0.02069964       0.02476333
C        3.66836000       5.37631000      13.67500000      -0.02815337       0.01055708       0.05761933
C        3.38613000       7.82009000      13.67500000       0.01430726       0.00296119       0.04925888
C        6.20797000       1.95505000      13.67500000      -0.00827810       0.00485622       0.04926142
C        5.92580000       4.39874000      13.67500000      -0.00288605       0.00764709       0.04935952
C        5.64368000       6.84252000      13.67500000       0.00195572       0.00150096       0.04934800
C        8.46552000       0.97748000      13.67500000      -0.00659731       0.03299635       0.05724771
C        8.18329000       3.42126000      13.67500000       0.00492291      -0.03017968       0.05761580
C       -4.51493000       8.14585000      13.67500000      -0.02712761       0.01738911       0.05724426
C       -1.97521000       4.72459000      13.67500000       0.02383860       0.01736311       0.05725727
C       -2.25744000       7.16838000      13.67500000      -0.00148755       0.01337133       0.04926835
C        0.56440000       1.30333000      13.67500000      -0.11489992      -0.26025648       0.25331506
C        0.28217000       3.74712000      13.67500000      -0.16986566       0.22830895       0.25326479
C       -0.00005000       6.19090000      13.67500000      -0.02048474      -0.02139990       0.05760913
C       -0.28212000       8.63459000      13.67500000      -0.00083093       0.00710659       0.04936165
C        2.82178000       0.32586000      13.67500000       0.11224072      -0.15036041       0.02474840
C        2.53956000       2.76964000      13.67500000       0.28770035       0.02909259       0.25328082
C        2.25749000       5.21333000      13.67500000       0.07037865       0.17170807       0.02476771
C        1.97527000       7.65711000      13.67500000      -0.00587413      -0.00030977       0.04936409
C        4.79710000       1.79207000      13.67500000      -0.00700642       0.03104639       0.05763356
C        4.51488000       4.23585000      13.67500000       0.00207887      -0.03143514       0.05726035
C        4.23276000       6.67964000      13.67500000      -0.01294144      -0.00456180       0.04926198
C        3.95053000       9.12342000      13.67500000       0.02982377      -0.01255163       0.05761070
C        7.05449000       0.81459000      13.67500000       0.00702700      -0.00311035       0.04936257
C        6.77237000       3.25838000      13.67500000       0.01040166      -0.00702604       0.04925720
C        6.49014000       5.70216000      13.67500000       0.00216364      -0.00432005       0.04891366
C        9.02981000       2.28081000      13.67500000      -0.18330069      -0.02009227       0.02474323
C        0.00000000       0.00000000      10.32500000      -0.07311530      -0.16928607      -0.02475002
C       -2.82184000       5.86504000      10.32500000      -0.00082957      -0.00567886      -0.04936851
C       -3.10407000       8.30883000      10.32500000       0.02676292       0.01764804      -0.05762388
C       -0.28223000       2.44378000      10.32500000      -0.27866654      -0.03346201      -0.25328964
C       -0.56435000       4.88757000      10.32500000      -0.10985223       0.14616489      -0.02474491
C       -0.84652000       7.33126000      10.32500000      -0.00252282      -0.00950908      -0.04925232
C        1.97532000       1.46621000      10.32500000       0.16667670      -0.22401303      -0.25324734
C        1.69309000       3.91000000      10.32500000       0.11189913       0.26221755      -0.25328272
C        1.41087000       6.35378000      10.32500000       0.02925686      -0.01623016      -0.05724812
C        1.12875000       8.79757000      10.32500000      -0.00066658      -0.00071382      -0.04891818
C        4.23270000       0.48874000      10.32500000      -0.02486053      -0.01811697      -0.05724545
C        3.95058000       2.93252000      10.32500000       0.17884014       0.02069964      -0.02476333
C        3.66836000       5.37631000      10.32500000      -0.02815337       0.01055708      -0.05761933
C        3.38613000       7.82009000      10.32500000       0.01430726       0.00296119      -0.04925888
C        6.20797000       1.95505000      10.32500000      -0.00827810       0.00485622      -0.04926142
C        5.92580000       4.39874000      10.32500000      -0.00288605       0.00764709      -0.04935952
C        5.64368000       6.84252000      10.32500000       0.00195572       0.00150096      -0.04934800
C        8.46552000       0.97748000      10.32500000      -0.00659731       0.03299635      -0.05724771
C        8.18329000       3.42126000      10.32500000       0.00492291      -0.03017968      -0.05761580
C       -4.51493000       8.14585000      10.32500000      -0.02712761       0.01738911      -0.05724426
C       -1.97521000       4.72459000      10.32500000       0.02383860       0.01736311      -0.05725727
C       -2.25744000       7.16838000      10.32500000      -0.00148755       0.01337133      -0.04926835
C        0.56440000       1.30333000      10.32500000      -0.11489992      -0.26025648      -0.25331506
C        0.28217000       3.74712000      10.32500000      -0.16986566       0.22830895      -0.25326479
C       -0.00005000       6.19090000      10.32500000      -0.02048474      -0.02139990      -0.05760913
C       -0.28212000       8.63459000      10.32500000      -0.00083093       0.00710659      -0.04936165
C        2.82178000       0.32586000      10.32500000       0.11224072      -0.15036041      -0.02474840
C        2.53956000       2.76964000      10.32500000       0.28770035       0.02909259      -0.25328082
C        2.25749000       5.21333000      10.32500000       0.07037865       0.17170807      -0.02476771
C        1.97527000       7.65711000      10.32500000      -0.00587413      -0.00030977      -0.04936409
C        4.79710000       1.79207000      10.32500000      -0.00700642       0.03104639      -0.05763356
C        4.51488000       4.23585000      10.32500000       0.00207887      -0.03143514      -0.05726035
C        4.23276000       6.67964000      10.32500000      -0.01294144      -0.00456180      -0.04926198
C        3.95053000       9.12342000      10.32500000       0.02982377      -0.01255163      -0.05761070
C        7.05449000       0.81459000      10.32500000       0.00702700      -0.00311035      -0.04936257
C        6.77237000       3.25838000      10.32500000       0.01040166      -0.00702604      -0.04925720
C        6.49014000       5.70216000      10.32500000       0.00216364      -0.00432005      -0.04891366
C        9.02981000       2.28081000      10.32500000      -0.18330069      -0.02009227      -0.02474323
Li       1.12869000       2.60667000      12.00000000      -0.00005483      -0.00004323      -0.00000000
77
Lattice="10.722900391 0.0 0.0 -5.361450195 9.286304141 0.0 0.0 0.0 24.0" Properties=species:S:1:pos:R:3:forces:R:3 energy=-707.7307154133362 stress="-0.06728230878906862 1.4147850062919575e-07 -3.5226216411042715e-18 1.4147850062919575e-07 -0.06728338073940847 -3.4836557069645074e-18 -3.5226216411042715e-18 -3.4836557069645074e-18 -0.0031026817502908697" free_energy=-707.7307154133362 pbc="T T T"
C        0.00000000       0.00000000      13.68242501      -0.06123585      -0.14165013       0.36636699
C       -2.82184000       5.86504000      13.68981055      -0.00437930      -0.00145086       0.03930013
C       -3.10407000       8.30883000      13.69228716       0.03041787       0.01661209      -0.03892465
C       -0.28223000       2.44378000      13.75098689      -0.28668005      -0.03439619      -0.01298677
C       -0.56435000       4.88757000      13.68242347      -0.09187711       0.12206943       0.36630264
C       -0.84652000       7.33126000      13.68977570      -0.00397348      -0.00545640       0.03433273
C        1.97532000       1.46621000      13.75097420       0.17150030      -0.23046280      -0.01273381
C        1.69309000       3.91000000      13.75098482       0.11509297       0.26955795      -0.01301107
C        1.41087000       6.35378000      13.69217443       0.03259927      -0.01430629      -0.03599191
C        1.12875000       8.79757000      13.68967545      -0.00066558      -0.00071402       0.04760495
C        4.23270000       0.48874000      13.69217363      -0.02487495      -0.02195994      -0.03598993
C        3.95058000       2.93252000      13.68242900       0.14899504       0.01717772       0.36643343
C        3.66836000       5.37631000      13.69228580      -0.02907969       0.01423291      -0.03886290
C        3.38613000       7.82009000      13.68977766       0.01151114      -0.00032116       0.03431231
C        6.20797000       1.95505000      13.68977843      -0.00404451       0.00409127       0.03432921
C        5.92580000       4.39874000      13.68980786       0.00254828       0.00859670       0.03931142
C        5.64368000       6.84252000      13.68980440       0.00007644      -0.00368769       0.03931660
C        8.46552000       0.97748000      13.69217431      -0.00991351       0.03493898      -0.03602227
C        8.18329000       3.42126000      13.69228474       0.00219971      -0.03283111      -0.03892922
C       -4.51493000       8.14585000      13.69217328      -0.03047897       0.01547639      -0.03600653
C       -1.97521000       4.72459000      13.69217718       0.02385550       0.02121895      -0.03602062
C       -2.25744000       7.16838000      13.68978050      -0.00002495       0.00930669       0.03430176
C        0.56440000       1.30333000      13.75099452      -0.11804047      -0.26764443      -0.01318563
C        0.28217000       3.74712000      13.75097944      -0.17463539       0.23472957      -0.01299988
C       -0.00005000       6.19090000      13.69228274      -0.02414736      -0.02037339      -0.03891598
C       -0.28212000       8.63459000      13.68980849       0.00272737       0.00286758       0.03928613
C        2.82178000       0.32586000      13.68242452       0.09424705      -0.12624356       0.36613461
C        2.53956000       2.76964000      13.75098425       0.29560191       0.03008650      -0.01317154
C        2.25749000       5.21333000      13.68243031       0.05848984       0.14406264       0.36626227
C        1.97527000       7.65711000      13.68980923      -0.00398539       0.00488183       0.03929110
C        4.79710000       1.79207000      13.69229007      -0.00428785       0.03370911      -0.03893240
C        4.51488000       4.23585000      13.69217810       0.00540525      -0.03337678      -0.03601209
C        4.23276000       6.67964000      13.68977859      -0.01014639      -0.00127917       0.03428166
C        3.95053000       9.12342000      13.69228321       0.03076041      -0.01623120      -0.03889729
C        7.05449000       0.81459000      13.68980877       0.00157781      -0.00407617       0.03929950
C        6.77237000       3.25838000      13.68977716       0.00615466      -0.00625603       0.03431370
C        6.49014000       5.70216000      13.68967410       0.00215635      -0.00430590       0.04759900
C        9.02981000       2.28081000      13.68242297      -0.15341452      -0.01657001       0.36629713
C        0.00000000       0.00000000      10.31757499      -0.06123585      -0.14165013      -0.36636699
C       -2.82184000       5.86504000      10.31018945      -0.00437930      -0.00145086      -0.03930013
C       -3.10407000       8.30883000      10.30771284       0.03041787       0.01661209       0.03892465
C       -0.28223000       2.44378000      10.24901311      -0.28668005      -0.03439619       0.01298677
C       -0.56435000       4.88757000      10.31757653      -0.09187711       0.12206943      -0.36630264
C       -0.84652000       7.33126000      10.31022430      -0.00397348      -0.00545640      -0.03433273
C        1.97532000       1.46621000      10.24902580       0.17150030      -0.23046280       0.01273381
C        1.69309000       3.91000000      10.24901518       0.11509297       0.26955795       0.01301107
C        1.41087000       6.35378000      10.30782557       0.03259927      -0.01430629       0.03599191
C        1.12875000       8.79757000      10.31032455      -0.00066558      -0.00071402      -0.04760495
C        4.23270000       0.48874000      10.30782637      -0.02487495      -0.02195994       0.03598993
C        3.95058000       2.93252000      10.31757100       0.14899504       0.01717772      -0.36643343
C        3.66836000       5.37631000      10.30771420      -0.02907969       0.01423291       0.03886290
C        3.38613000       7.82009000      10.31022234       0.01151114      -0.00032116      -0.03431231
C        6.20797000       1.95505000      10.31022157      -0.00404451       0.00409127      -0.03432921
C        5.92580000       4.39874000      10.31019214       0.00254828       0.00859670      -0.03931142
C        5.64368000       6.84252000      10.31019560       0.00007644      -0.00368769      -0.03931660
C        8.46552000       0.97748000      10.30782569      -0.00991351       0.03493898       0.03602227
C        8.18329000       3.42126000      10.30771526       0.00219971      -0.03283111       0.03892922
C       -4.51493000       8.14585000      10.30782672      -0.03047897       0.01547639       0.03600653
C       -1.97521000       4.72459000      10.30782282       0.02385550       0.02121895       0.03602062
C       -2.25744000       7.16838000      10.31021950      -0.00002495       0.00930669      -0.03430176
C        0.56440000       1.30333000      10.24900548      -0.11804047      -0.26764443       0.01318563
C        0.28217000       3.74712000      10.24902056      -0.17463539       0.23472957       0.01299988
C       -0.00005000       6.19090000      10.30771726      -0.02414736      -0.02037339       0.03891598
C       -0.28212000       8.63459000      10.31019151       0.00272737       0.00286758      -0.03928613
C        2.82178000       0.32586000      10.31757548       0.09424705      -0.12624356      -0.36613461
C        2.53956000       2.76964000      10.24901575       0.29560191       0.03008650       0.01317154
C        2.25749000       5.21333000      10.31756969       0.05848984       0.14406264      -0.36626227
C        1.97527000       7.65711000      10.31019077      -0.00398539       0.00488183      -0.03929110
C        4.79710000       1.79207000      10.30770993      -0.00428785       0.03370911       0.03893240
C        4.51488000       4.23585000      10.30782190       0.00540525      -0.03337678       0.03601209
C        4.23276000       6.67964000      10.31022141      -0.01014639      -0.00127917      -0.03428166
C        3.95053000       9.12342000      10.30771679       0.03076041      -0.01623120       0.03889729
C        7.05449000       0.81459000      10.31019123       0.00157781      -0.00407617      -0.03929950
C        6.77237000       3.25838000      10.31022284       0.00615466      -0.00625603      -0.03431370
C        6.49014000       5.70216000      10.31032590       0.00215635      -0.00430590      -0.04759900
C        9.02981000       2.28081000      10.31757703      -0.15341452      -0.01657001      -0.36629713
Li       1.12867355       2.60665703      12.00000000      -0.00006370      -0.00004619       0.00000000
77
Lattice="10.722900391 0.0 0.0 -5.361450195 9.286304141 0.0 0.0 0.0 24.0" Properties=species:S:1:pos:R:3:forces:R:3 energy=-707.8446935167201 stress="-0.06741451207337128 1.1813869443530963e-07 8.725025975724458e-19 1.1813869443530963e-07 -0.06741553040336613 6.131408902275005e-18 8.725025975724458e-19 6.131408902275005e-18 -0.0021385901756465356" free_energy=-707.8446935167201 pbc="T T T"
C        0.00000000       0.00000000      13.73743787      -0.06599855      -0.15202257      -0.04261379
C       -2.82184000       5.86504000      13.70668711       0.00008805      -0.00290598      -0.07028108
C       -3.10407000       8.30883000      13.70059885       0.03158234       0.02487460       0.20860682
C       -0.28223000       2.44378000      13.80875324      -0.27957413      -0.03350618      -0.00895969
C       -0.56435000       4.88757000      13.73742649      -0.09845102       0.13134470      -0.04238894
C       -0.84652000       7.33126000      13.70595790      -0.00302904      -0.01196994      -0.03328418
C        1.97532000       1.46621000      13.80876459       0.16719582      -0.22476954      -0.00924848
C        1.69309000       3.91000000      13.80874628       0.11230244       0.26295083      -0.00897234
C        1.41087000       6.35378000      13.70079166       0.03537038      -0.02164461       0.20316327
C        1.12875000       8.79757000      13.70756143      -0.00066720      -0.00071853      -0.01447455
C        4.23270000       0.48874000      13.70079049      -0.03260582      -0.02068239       0.20298345
C        3.95058000       2.93252000      13.73745391       0.16037111       0.01823690      -0.04270278
C        3.66836000       5.37631000      13.70060470      -0.03682981       0.01107201       0.20867069
C        3.38613000       7.82009000      13.70595867       0.01668245       0.00376061      -0.03327495
C        6.20797000       1.95505000      13.70596230      -0.01016467       0.00653741      -0.03327174
C        5.92580000       4.39874000      13.70668382      -0.00094409       0.00545147      -0.07027844
C        5.64368000       6.84252000      13.70667835      -0.00089167       0.00090836      -0.07024474
C        8.46552000       0.97748000      13.70078736      -0.00495083       0.04102001       0.20311054
C        8.18329000       3.42126000      13.70059391       0.00879748      -0.03797627       0.20877267
C       -4.51493000       8.14585000      13.70078763      -0.03325971       0.02283274       0.20321331
C       -1.97521000       4.72459000      13.70079270       0.03159657       0.01995530       0.20308167
C       -2.25744000       7.16838000      13.70596232      -0.00096567       0.01581888      -0.03328310
C        0.56440000       1.30333000      13.80874014      -0.11521976      -0.26101780      -0.00850702
C        0.28217000       3.74712000      13.80873819      -0.17027912       0.22899691      -0.00870660
C       -0.00005000       6.19090000      13.70059212      -0.02529606      -0.02867719       0.20875685
C       -0.28212000       8.63459000      13.70668156      -0.00173043       0.00431690      -0.07025390
C        2.82178000       0.32586000      13.73740580       0.10076244      -0.13544095      -0.04214084
C        2.53956000       2.76964000      13.80872372       0.28842164       0.02919941      -0.00837678
C        2.25749000       5.21333000      13.73743327       0.06321529       0.15436838      -0.04246944
C        1.97527000       7.65711000      13.70668353      -0.00301519       0.00029604      -0.07025853
C        4.79710000       1.79207000      13.70060298      -0.01090660       0.03886853       0.20890047
C        4.51488000       4.23585000      13.70079549       0.00041949      -0.03945458       0.20324091
C        4.23276000       6.67964000      13.70595621      -0.01531396      -0.00535753      -0.03322241
C        3.95053000       9.12342000      13.70059547       0.03853025      -0.01308870       0.20879481
C        7.05449000       0.81459000      13.70668385       0.00507250      -0.00094234      -0.07030261
C        6.77237000       3.25838000      13.70595796       0.01226504      -0.00870041      -0.03325319
C        6.49014000       5.70216000      13.70755821       0.00215081      -0.00429360      -0.01446674
C        9.02981000       2.28081000      13.73742485      -0.16471692      -0.01762470      -0.04240228
C        0.00000000       0.00000000      10.26256213      -0.06599855      -0.15202257       0.04261379
C       -2.82184000       5.86504000      10.29331289       0.00008805      -0.00290598       0.07028108
C       -3.10407000       8.30883000      10.29940115       0.03158234       0.02487460      -0.20860682
C       -0.28223000       2.44378000      10.19124676      -0.27957413      -0.03350618       0.00895969
C       -0.56435000       4.88757000      10.26257351      -0.09845102       0.13134470       0.04238894
C       -0.84652000       7.33126000      10.29404210      -0.00302904      -0.01196994       0.03328418
C        1.97532000       1.46621000      10.19123541       0.16719582      -0.22476954       0.00924848
C        1.69309000       3.91000000      10.19125372       0.11230244       0.26295083       0.00897234
C        1.41087000       6.35378000      10.29920834       0.03537038      -0.02164461      -0.20316327
C        1.12875000       8.79757000      10.29243857      -0.00066720      -0.00071853       0.01447455
C        4.23270000       0.48874000      10.29920951      -0.03260582      -0.02068239      -0.20298345
C        3.95058000       2.93252000      10.26254609       0.16037111       0.01823690       0.04270278
C        3.66836000       5.37631000      10.29939530      -0.03682981       0.01107201      -0.20867069
C        3.38613000       7.82009000      10.29404133       0.01668245       0.00376061       0.03327495
C        6.20797000       1.95505000      10.29403770      -0.01016467       0.00653741       0.03327174
C        5.92580000       4.39874000      10.29331618      -0.00094409       0.00545147       0.07027844
C        5.64368000       6.84252000      10.29332165      -0.00089167       0.00090836       0.07024474
C        8.46552000       0.97748000      10.29921264      -0.00495083       0.04102001      -0.20311054
C        8.18329000       3.42126000      10.29940609       0.00879748      -0.03797627      -0.20877267
C       -4.51493000       8.14585000      10.29921237      -0.03325971       0.02283274      -0.20321331
C       -1.97521000       4.72459000      10.29920730       0.03159657       0.01995530      -0.20308167
C       -2.25744000       7.16838000      10.29403768      -0.00096567       0.01581888       0.03328310
C        0.56440000       1.30333000      10.19125986      -0.11521976      -0.26101780       0.00850702
C        0.28217000       3.74712000      10.19126181      -0.17027912       0.22899691       0.00870660
C       -0.00005000       6.19090000      10.29940788      -0.02529606      -0.02867719      -0.20875685
C       -0.28212000       8.63459000      10.29331844      -0.00173043       0.00431690       0.07025390
C        2.82178000       0.32586000      10.26259420       0.10076244      -0.13544095       0.04214084
C        2.53956000       2.76964000      10.19127628       0.28842164       0.02919941       0.00837678
C        2.25749000       5.21333000      10.26256673       0.06321529       0.15436838       0.04246944
C        1.97527000       7.65711000      10.29331647      -0.00301519       0.00029604       0.07025853
C        4.79710000       1.79207000      10.29939702      -0.01090660       0.03886853      -0.20890047
C        4.51488000       4.23585000      10.29920451       0.00041949      -0.03945458      -0.20324091
C        4.23276000       6.67964000      10.29404379      -0.01531396      -0.00535753       0.03322241
C        3.95053000       9.12342000      10.29940453       0.03853025      -0.01308870      -0.20879481
C        7.05449000       0.81459000      10.29331615       0.00507250      -0.00094234       0.07030261
C        6.77237000       3.25838000      10.29404204       0.01226504      -0.00870041       0.03325319
C        6.49014000       5.70216000      10.29244179       0.00215081      -0.00429360       0.01446674
C        9.02981000       2.28081000      10.26257515      -0.16471692      -0.01762470       0.04240228
Li       1.12865211       2.60664067      12.00000000      -0.00002774      -0.00003235      -0.00000000
77
Lattice="10.722900391 0.0 0.0 -5.361450195 9.286304141 0.0 0.0 0.0 24.0" Properties=species:S:1:pos:R:3:forces:R:3 energy=-707.9425313411875 stress="-0.0674215067787437 2.0202434617820712e-07 -3.378238521318283e-18 2.0202434617820712e-07 -0.06742261476692103 1.082542369391143e-18 -3.378238521318283e-18 1.082542369391143e-18 -0.000967343765311882" free_energy=-707.9425313411875 pbc="T T T"
C        0.00000000       0.00000000      13.80255094      -0.06751723      -0.15861987      -0.04343535
C       -2.82184000       5.86504000      13.71536701       0.01126302      -0.00754636       0.14712470
C       -3.10407000       8.30883000      13.75289486       0.03485167       0.02218930       0.07702657
C       -0.28223000       2.44378000      13.88419110      -0.27632276      -0.03382209      -0.04320410
C       -0.56435000       4.88757000      13.80257081      -0.10347181       0.13602500      -0.04395973
C       -0.84652000       7.33126000      13.72101442      -0.00031004      -0.02019118       0.01484757
C        1.97532000       1.46621000      13.88417754       0.16581890      -0.22174932      -0.04277557
C        1.69309000       3.91000000      13.88417511       0.11042657       0.26021928      -0.04312787
C        1.41087000       6.35378000      13.75242126       0.04289128      -0.01847836       0.05353351
C        1.12875000       8.79757000      13.72860884      -0.00066243      -0.00073067      -0.26409065
C        4.23270000       0.48874000      13.75238411      -0.03370215      -0.02876121       0.05414945
C        3.95058000       2.93252000      13.80256552       0.16677467       0.02021789      -0.04318963
C        3.66836000       5.37631000      13.75292298      -0.03608295       0.01525243       0.07670412
C        3.38613000       7.82009000      13.72101540       0.02244839       0.01023056       0.01499339
C        6.20797000       1.95505000      13.72102350      -0.01865317       0.00829654       0.01501014
C        5.92580000       4.39874000      13.71536345      -0.01055350      -0.00189886       0.14731340
C        5.64368000       6.84252000      13.71536194      -0.00246121       0.01291243       0.14719739
C        8.46552000       0.97748000      13.75240098      -0.01142873       0.04599281       0.05369515
C        8.18329000       3.42126000      13.75291930       0.00480090      -0.03943274       0.07654973
C       -4.51493000       8.14585000      13.75242328      -0.04079070       0.01965396       0.05331417
C       -1.97521000       4.72459000      13.75240392       0.03265424       0.02805606       0.05374475
C       -2.25744000       7.16838000      13.72101852      -0.00367533       0.02404058       0.01483152
C        0.56440000       1.30333000      13.88423966      -0.11334494      -0.25844879      -0.04455649
C        0.28217000       3.74712000      13.88421586      -0.16892915       0.22604719      -0.04416910
C       -0.00005000       6.19090000      13.75291467      -0.02856428      -0.02596124       0.07681008
C       -0.28212000       8.63459000      13.71536216      -0.01290478       0.00895118       0.14708840
C        2.82178000       0.32586000      13.80257003       0.10588107      -0.14025491      -0.04465578
C        2.53956000       2.76964000      13.88424073       0.28519425       0.02957875      -0.04476440
C        2.25749000       5.21333000      13.80256160       0.06479666       0.16107668      -0.04405702
C        1.97527000       7.65711000      13.71536488      -0.00144496      -0.01168671       0.14724387
C        4.79710000       1.79207000      13.75295862      -0.00686246       0.04029948       0.07607425
C        4.51488000       4.23585000      13.75244065       0.00694193      -0.04437049       0.05324852
C        4.23276000       6.67964000      13.72101879      -0.02107305      -0.01183378       0.01491937
C        3.95053000       9.12342000      13.75292937       0.03777102      -0.01729191       0.07635338
C        7.05449000       0.81459000      13.71535752       0.01465944       0.00641744       0.14727737
C        6.77237000       3.25838000      13.72101871       0.02073928      -0.01046865       0.01492802
C        6.49014000       5.70216000      13.72860467       0.00214184      -0.00429512      -0.26404953
C        9.02981000       2.28081000      13.80256502      -0.17135670      -0.01964449      -0.04408705
C        0.00000000       0.00000000      10.19744906      -0.06751723      -0.15861987       0.04343535