85
Lattice="11.273099899 0.0 0.0 -5.63654995 9.762790892 0.0 0.0 0.0 24.0" Properties=species:S:1:pos:R:3:forces:R:3 energy=-781.4576855055964 stress="-0.06653491741090656 3.7712900362106347e-06 -5.604085757918722e-10 3.7712900362106347e-06 -0.06653409045337863 4.198745326836657e-09 -5.604085757918722e-10 4.198745326836657e-09 -0.005185207709040876" free_energy=-781.4576855055964 pbc="T T T"
C        0.00000000       0.00000000      13.67500000      -0.05979282      -0.31179872       0.18876500
C       -0.80524000       2.32452000      13.67500000      -0.23951420       0.20449858       0.18873375
C       -1.61042000       4.64894000      13.67500000      -0.00496869      -0.01878327       0.03248627
C       -2.41566000       6.97346000      13.67500000      -0.01163624      -0.01823369       0.03540177
C       -3.22084000       9.29789000      13.67500000       0.05006110      -0.04608973       0.06122606
C        1.61048000       1.85962000      13.67500000       0.29599943       0.10191551       0.18871799
C        0.80518000       4.18404000      13.67500000       0.01749256       0.07089349       0.06122140
C       -0.00006000       6.50856000      13.67500000      -0.01156147       0.00165425       0.03607287
C       -0.80524000       8.83298000      13.67500000       0.01166661       0.01152430       0.03608061
C        4.02607000       1.39471000      13.67500000      -0.01460572       0.01318228       0.03248282
C        3.22089000       3.71914000      13.67500000      -0.00592592      -0.01668857       0.03268631
C        2.41566000       6.04366000      13.67500000       0.01795817      -0.00267342       0.03541362
C        1.61048000       8.36808000      13.67500000       0.00163496      -0.01271415       0.03607807
C        6.44179000       0.92981000      13.67500000      -0.00902653       0.01589963       0.03540412
C        5.63661000       3.25423000      13.67500000      -0.02247796      -0.00489542       0.03598024
C        4.83137000       5.57875000      13.67500000       0.00006171       0.01963968       0.03597924
C        4.02607000       7.90317000      13.67500000       0.02060123       0.00998381       0.03247600
C        8.85739000       0.46490000      13.67500000      -0.06391715      -0.02236252       0.06122627
C        8.05221000       2.78933000      13.67500000       0.01950870       0.00841217       0.03268674
C        7.24697000       5.11385000      13.67500000       0.01650495      -0.01332956       0.03598150
C        6.44179000       7.43827000      13.67500000      -0.01690453       0.01714275       0.03268812
C        7.51538000       6.50856000      13.67500000       0.02456027      -0.00533355       0.02802684
C       -4.56290000       8.83298000      13.67500000       0.10217595      -0.11900414       0.04857044
C        0.26841000       1.39471000      13.67500000      -0.00081261      -0.00023460       3.83160382
C       -0.53677000       3.71914000      13.67500000       0.00338117       0.15795262       0.04859032
C       -1.34201000       6.04366000      13.67500000       0.00485793       0.01967754       0.02849747
C       -2.14730000       8.36808000      13.67500000      -0.00664042       0.00976080       0.02195187
C        2.68401000       0.92981000      13.67500000       0.13575876      -0.08497918       0.04860040
C        1.87883000       3.25423000      13.67500000       0.05344446       0.15159292       0.04860068
C        1.07359000       5.57875000      13.67500000      -0.00087655      -0.01288689       0.02194694
C        0.26841000       7.90317000      13.67500000       0.00013338       0.00354473       0.03195062
C        5.09972000       0.46490000      13.67500000       0.01428370      -0.01757793       0.02849231
C        4.29449000       2.78942000      13.67500000       0.02657170       0.00434809       0.02879707
C        3.48931000       5.11385000      13.67500000      -0.01072064       0.02199566       0.02802075
C        2.68407000       7.43837000      13.67500000      -0.02320072      -0.00666321       0.02850495
C        7.51544000       0.00000000      13.67500000       0.00826471       0.00424954       0.02194653
C        6.71020000       2.32452000      13.67500000      -0.01462808      -0.02226251       0.02802533
C        5.90491000       4.64894000      13.67500000       0.00321804       0.00007958       0.03052784
C        5.09967000       6.97346000      13.67500000      -0.00221215      -0.02667855       0.02879786
C        4.29449000       9.29789000      13.67500000      -0.13825640      -0.07224572       0.04857156
C        9.12580000       1.85962000      13.67500000      -0.15236538      -0.03096554       0.04857927
C        8.32062000       4.18404000      13.67500000      -0.01807418       0.01848848       0.02878505
C        0.00000000       0.00000000      10.32500000      -0.05806587      -0.30094916      -0.22554513
C       -0.80524000       2.32452000      10.32500000      -0.22893396       0.19753236      -0.22551642
C       -1.61042000       4.64894000      10.32500000      -0.02544779      -0.01650403      -0.04088786
C       -2.41566000       6.97346000      10.32500000       0.00873078       0.01684628      -0.03393928
C       -3.22084000       9.29789000      10.32500000       0.14727280      -0.13054072      -0.00777579
C        1.61048000       1.85962000      10.32500000       0.28842076       0.09657940      -0.22551532
C        0.80518000       4.18404000      10.32500000       0.04037127       0.19572529      -0.00778047
C       -0.00006000       6.50856000      10.32500000       0.01226113      -0.00708242      -0.03559137
C       -0.80524000       8.83298000      10.32500000      -0.00755915      -0.00390298      -0.03559352
C        4.02607000       1.39471000      10.32500000      -0.00011938       0.02809139      -0.04089130
C        3.22089000       3.71914000      10.32500000       0.01551289      -0.02574306      -0.04082910
C        2.41566000       6.04366000      10.32500000      -0.02093457      -0.00499231      -0.03394377
C        1.61048000       8.36808000      10.32500000      -0.00042642       0.00998418      -0.03559524
C        6.44179000       0.92981000      10.32500000       0.01146775      -0.01851199      -0.03394098
C        5.63661000       3.25423000      10.32500000      -0.00676302      -0.00483958      -0.03400142
C        4.83137000       5.57875000      10.32500000      -0.00741999       0.00549379      -0.03400791
C        4.02607000       7.90317000      10.32500000       0.03091048      -0.01055539      -0.04089237
C        8.85739000       0.46490000      10.32500000      -0.18465097      -0.06637611      -0.00777619
C        8.05221000       2.78933000      10.32500000       0.01665574       0.02904244      -0.04082072
C        7.24697000       5.11385000      10.32500000       0.00847603      -0.00030621      -0.03401153
C        6.44179000       7.43827000      10.32500000      -0.03078868       0.00385468      -0.04082398
C        9.39427000       3.25423000      10.32500000      -0.15233858       0.13305168      -0.00530230
C       -2.68407000       5.57875000      10.32500000      -0.00930207      -0.02118385      -0.02956885
C       -3.48925000       7.90317000      10.32500000       0.02234114       0.01948048      -0.03719173
C        1.34206000       0.46490000      10.32500000       0.22575819      -0.19627218      -0.21233724
C        0.53688000       2.78933000      10.32500000       0.05273810       0.29609978      -0.21239067
C       -0.26836000       5.11385000      10.32500000       0.02744916      -0.00060185      -0.03719668
C       -1.07365000       7.43827000      10.32500000      -0.00686359       0.00323567      -0.02942463
C        3.75766000       0.00000000      10.32500000      -0.01218096      -0.02621541      -0.03719406
C        2.95248000       2.32442000      10.32500000       0.18914895       0.06910467      -0.00531485
C        2.14724000       4.64894000      10.32500000      -0.02606497       0.01226434      -0.03718430
C        1.34206000       6.97337000      10.32500000       0.00154775      -0.00349339      -0.02942666
C        0.53683000       9.29789000      10.32500000       0.00351585       0.00652130      -0.02941841
C        5.36814000       1.85962000      10.32500000      -0.01292301       0.01429510      -0.02957058
C        4.56296000       4.18404000      10.32500000      -0.00135220      -0.00914365      -0.03091505
C        3.75772000       6.50856000      10.32500000       0.02060670      -0.00098848      -0.02957581
C        2.95254000       8.83298000      10.32500000      -0.01834196       0.02785325      -0.03720052
C        7.78385000       1.39471000      10.32500000      -0.00026293      -0.03147803      -0.03720095
C        6.97856000       3.71914000      10.32500000       0.01194590       0.00561136      -0.03090990
C        6.17332000       6.04366000      10.32500000      -0.00524168       0.00301549      -0.03090986
C        5.36814000       8.36808000      10.32500000      -0.03650074      -0.19562217      -0.00529482
C       10.19945000       0.92981000      10.32500000      -0.28262863      -0.09833774      -0.21235091
Li       0.26841000       1.39471000      12.00000000      -0.00004139      -0.00007772      -3.37361821
85
Lattice="11.273099899 0.0 0.0 -5.63654995 9.762790892 0.0 0.0 0.0 24.0" Properties=species:S:1:pos:R:3:forces:R:3 energy=-781.8596687853968 stress="-0.06656377062085354 3.7604451183813237e-06 3.9203012047903294e-08 3.7604451183813237e-06 -0.06656287567256432 1.9492966341882105e-08 3.9203012047903294e-08 1.9492966341882105e-08 -0.003782646673262564" free_energy=-781.8596687853968 pbc="T T T"
C        0.00000000       0.00000000      13.68107662      -0.04460985      -0.23288787       0.74456688
C       -0.80524000       2.32452000      13.68107561      -0.17879957       0.15198525       0.74459698
C       -1.61042000       4.64894000      13.67604578      -0.01176598      -0.01516207      -0.01914046
C       -2.41566000       6.97346000      13.67613963      -0.00824678      -0.01928510       0.02568490
C       -3.22084000       9.29789000      13.67697096       0.04434301      -0.04113022       0.09584574
C        1.61048000       1.85962000      13.68107510       0.22022356       0.07568864       0.74460397
C        0.80518000       4.18404000      13.67697081       0.01605008       0.06345951       0.09585944
C       -0.00006000       6.50856000      13.67616124      -0.00888567       0.00575692       0.02816279
C       -0.80524000       8.83298000      13.67616149       0.01388247       0.00715636       0.02816784
C        4.02607000       1.39471000      13.67604567      -0.00806642       0.01725599      -0.01914097
C        3.22089000       3.71914000      13.67605222       0.00205252      -0.01587915      -0.01909098
C        2.41566000       6.04366000      13.67614002       0.01717558       0.00078787       0.02569116
C        1.61048000       8.36808000      13.67616140      -0.00325668      -0.01245116       0.02816676
C        6.44179000       0.92981000      13.67613971      -0.01163453       0.01349232       0.02568309
C        5.63661000       3.25423000      13.67615826      -0.01825295      -0.00181415       0.03058194
C        4.83137000       5.57875000      13.67615822       0.00062057       0.01444233       0.03058199
C        4.02607000       7.90317000      13.67604545       0.02084718       0.00228031      -0.01913404
C        8.85739000       0.46490000      13.67697096      -0.05676047      -0.01989598       0.09585328
C        8.05221000       2.78933000      13.67605223       0.01480982       0.01492291      -0.01908420
C        7.24697000       5.11385000      13.67615830       0.01172408      -0.01121225       0.03058193
C        6.44179000       7.43827000      13.67605228      -0.02018762       0.00980649      -0.01908112
C        7.51538000       6.50856000      13.67590222       0.02190054      -0.00275182       0.03192347
C       -4.56290000       8.83298000      13.67656355       0.09415987      -0.12123826       0.01548090
C        0.26841000       1.39471000      13.79834485      -0.00089676      -0.00034276      -0.17092510
C       -0.53677000       3.71914000      13.67656419      -0.00431002       0.15471517       0.01541207
C       -1.34201000       6.04366000      13.67591737       0.00435103       0.01585727       0.03206151
C       -2.14730000       8.36808000      13.67570666      -0.00063741       0.00390701       0.03537611
C        2.68401000       0.92981000      13.67656452       0.13678787      -0.07668286       0.01541890
C        1.87883000       3.25423000      13.67656453       0.05940107       0.14569810       0.01544900
C        1.07359000       5.57875000      13.67570650       0.00118228      -0.00475537       0.03537600
C        0.26841000       7.90317000      13.67602854       0.00013327       0.00354499       0.03394712
C        5.09972000       0.46490000      13.67591721       0.01122764      -0.01522754       0.03206028
C        4.29449000       2.78942000      13.67592702       0.02712081       0.00473603       0.03923347
C        3.48931000       5.11385000      13.67590203      -0.01162238       0.01840777       0.03192305
C        2.68407000       7.43837000      13.67591762      -0.01963197      -0.00518836       0.03206417
C        7.51544000       0.00000000      13.67570649       0.00020112       0.00197304       0.03537405
C        6.71020000       2.32452000      13.67590218      -0.01106682      -0.02124776       0.03192342
C        5.90491000       4.64894000      13.67598274       0.00321685       0.00007937       0.03342644
C        5.09967000       6.97346000      13.67592704      -0.00215108      -0.02735170       0.03922832
C        4.29449000       9.29789000      13.67656359      -0.13163274      -0.07728401       0.01543982
C        9.12580000       1.85962000      13.67656384      -0.15028608      -0.02290775       0.01546878
C        8.32062000       4.18404000      13.67592663      -0.01868602       0.01877290       0.03922599
C        0.00000000       0.00000000      10.31773938      -0.07207228      -0.37373190      -0.28171151
C       -0.80524000       2.32452000      10.31774030      -0.28496056       0.24603589      -0.28172668
C       -1.61042000       4.64894000      10.32368376      -0.02357228      -0.02514520      -0.03285028
C       -2.41566000       6.97346000      10.32390745       0.00931583       0.01687484      -0.03180764
C       -3.22084000       9.29789000      10.32474969       0.14956603      -0.13249399      -0.03559368
C        1.61048000       1.85962000      10.31774034       0.35843684       0.12085833      -0.28169810
C        0.80518000       4.18404000      10.32474954       0.04091243       0.19868253      -0.03560385
C       -0.00006000       6.50856000      10.32385426       0.01240365      -0.00672667      -0.03205338
C       -0.80524000       8.83298000      10.32385419      -0.00732054      -0.00420495      -0.03205297
C        4.02607000       1.39471000      10.32368365      -0.00852829       0.03077485      -0.03285329
C        3.22089000       3.71914000      10.32368565       0.01026385      -0.03326850      -0.03325775
C        2.41566000       6.04366000      10.32390730      -0.02125147      -0.00449868      -0.03180919
C        1.61048000       8.36808000      10.32385414      -0.00080726       0.00992966      -0.03205616
C        6.44179000       0.92981000      10.32390739       0.01119757      -0.01903307      -0.03180850
C        5.63661000       3.25423000      10.32390545      -0.00658341      -0.00533461      -0.03173732
C        4.83137000       5.57875000      10.32390524      -0.00793579       0.00558831      -0.03174037
C        4.02607000       7.90317000      10.32368362       0.03746265      -0.00461533      -0.03285139
C        8.85739000       0.46490000      10.32474967      -0.18747222      -0.06740514      -0.03560123
C        8.05221000       2.78933000      10.32368592       0.02580624       0.02826566      -0.03325197
C        7.24697000       5.11385000      10.32390512       0.00881432       0.00009596      -0.03174116
C        6.44179000       7.43827000      10.32368582      -0.03468914       0.01216169      -0.03324829
C        9.39427000       3.25423000      10.32482931      -0.15475461       0.13508858      -0.03808783
C       -2.68407000       5.57875000      10.32404814      -0.00977795      -0.02119093      -0.03138991
C       -3.48925000       7.90317000      10.32380274       0.02070547       0.02908715      -0.03263353
C        1.34206000       0.46490000      10.31816456       0.28140875      -0.24445697      -0.28402249
C        0.53688000       2.78933000      10.31816284       0.06667074       0.36840507      -0.28406808
C       -0.26836000       5.11385000      10.32380259       0.03210298      -0.00950837      -0.03311655
C       -1.07365000       7.43827000      10.32405278      -0.00724550       0.00291012      -0.03164137
C        3.75766000       0.00000000      10.32380267      -0.02221366      -0.02579431      -0.03311684
C        2.95248000       2.32442000      10.32482891       0.19209544       0.07018396      -0.03810381
C        2.14724000       4.64894000      10.32380298      -0.03355995       0.00604274      -0.03262917
C        1.34206000       6.97337000      10.32405271       0.00201921      -0.00366275      -0.03164428
C        0.53683000       9.29789000      10.32405298       0.00342618       0.00701371      -0.03163967
C        5.36814000       1.85962000      10.32404808      -0.01269265       0.01471236      -0.03138973
C        4.56296000       4.18404000      10.32400480      -0.00105879      -0.00903043      -0.03150008
C        3.75772000       6.50856000      10.32404791       0.02085284      -0.00139298      -0.03139483
C        2.95254000       8.83298000      10.32380246      -0.01296461       0.03634851      -0.03311947
C        7.78385000       1.39471000      10.32380245       0.00886592      -0.03486092      -0.03263618
C        6.97856000       3.71914000      10.32400497       0.01170231       0.00580797      -0.03149611
C        6.17332000       6.04366000      10.32400497      -0.00529130       0.00270675      -0.03149799
C        5.36814000       8.36808000      10.32482955      -0.03705794      -0.19873643      -0.03811219
C       10.19945000       0.92981000      10.31816412      -0.35219311      -0.12243268      -0.28402673
Li       0.26840867       1.39470750      11.89139837      -0.00004939      -0.00008023      -0.18052315
85
Lattice="11.273099899 0.0 0.0 -5.63654995 9.762790892 0.0 0.0 0.0 24.0" Properties=species:S:1:pos:R:3:forces:R:3 energy=-781.9569254023335 stress="-0.06671500433513866 3.7536075038696667e-06 6.315523911907366e-08 3.7536075038696667e-06 -0.06671408090200101 8.758953522144664e-08 6.315523911907366e-08 8.758953522144664e-08 -0.0035248977882808958" free_energy=-781.9569254023335 pbc="T T T"
C        0.00000000       0.00000000      13.73500975      -0.05678862      -0.29609163      -0.04551556
C       -0.80524000       2.32452000      13.73501078      -0.22744159       0.19412137      -0.04545000
C       -1.61042000       4.64894000      13.67480764      -0.01376044      -0.01471817       0.00212671
C       -2.41566000       6.97346000      13.67811489      -0.00572529      -0.01920697       0.03801340
C       -3.22084000       9.29789000      13.68406027       0.05755387      -0.05244077      -0.01962878
C        1.61048000       1.85962000      13.73501070       0.28105665       0.09674417      -0.04533235
C        0.80518000       4.18404000      13.68406108       0.01922632       0.08056453      -0.01965797
C       -0.00006000       6.50856000      13.67831615      -0.00829865       0.00764996       0.03638095
C       -0.80524000       8.83298000      13.67831679       0.01522893       0.00570003       0.03638074
C        4.02607000       1.39471000      13.67480748      -0.00667955       0.01876249       0.00213237
C        3.22089000       3.71914000      13.67481841       0.00397015      -0.01629529       0.00179829
C        2.41566000       6.04366000      13.67811576       0.01584608       0.00292948       0.03801703
C        1.61048000       8.36808000      13.67831662      -0.00519083      -0.01289069       0.03638151
C        6.44179000       0.92981000      13.67811484      -0.01282775       0.01127071       0.03801286
C        5.63661000       3.25423000      13.67848560      -0.01568896      -0.00165385       0.04467816
C        4.83137000       5.57875000      13.67848556      -0.00051792       0.01214463       0.04467653
C        4.02607000       7.90317000      13.67480773       0.02146348       0.00034669       0.00213630
C        8.85739000       0.46490000      13.68406082      -0.07315867      -0.02568286      -0.01962726
C        8.05221000       2.78933000      13.67481891       0.01421554       0.01680297       0.00180014
C        7.24697000       5.11385000      13.67848564       0.01030215      -0.00907610       0.04467343
C        6.44179000       7.43827000      13.67481918      -0.02151989       0.00836585       0.00181942
C        7.51538000       6.50856000      13.67829380       0.02365126      -0.00628657      -0.01171042
C       -4.56290000       8.83298000      13.67786226       0.07738553      -0.10451687       0.32194867
C        0.26841000       1.39471000      13.80135534      -0.00090870      -0.00034908       0.53705496
C       -0.53677000       3.71914000      13.67785806      -0.00713921       0.13128298       0.32196609
C       -1.34201000       6.04366000      13.67832068       0.00444827       0.02082628      -0.01229629
C       -2.14730000       8.36808000      13.67832072       0.00438785      -0.00050111       0.01197514
C        2.68401000       0.92981000      13.67785891       0.11790878      -0.06251234       0.32195229
C        1.87883000       3.25423000      13.67786107       0.05331016       0.12280786       0.32187463
C        1.07359000       5.57875000      13.67832054       0.00248548       0.00180426       0.01198607
C        0.26841000       7.90317000      13.67858024       0.00013348       0.00354494       0.02381414
C        5.09972000       0.46490000      13.67832040       0.01548276      -0.01779421      -0.01229293
C        4.29449000       2.78942000      13.67884379       0.02763330       0.00461740       0.00888004
C        3.48931000       5.11385000      13.67829355      -0.00943378       0.02169442      -0.01171993
C        2.68407000       7.43837000      13.67832114      -0.02398061      -0.00758700      -0.01228231
C        7.51544000       0.00000000      13.67832038      -0.00612622      -0.00017630       0.01197481
C        6.71020000       2.32452000      13.67829374      -0.01500555      -0.02099398      -0.01171719
C        5.90491000       4.64894000      13.67849160       0.00321636       0.00007879       0.02576091
C        5.09967000       6.97346000      13.67884345      -0.00249519      -0.02773658       0.00888541
C        4.29449000       9.29789000      13.67785936      -0.10991964      -0.06802172       0.32203004
C        9.12580000       1.85962000      13.67786171      -0.12742317      -0.01675522       0.32196241
C        8.32062000       4.18404000      13.67884283      -0.01884217       0.01926611       0.00887873
C        0.00000000       0.00000000      10.29672124      -0.07494264      -0.38864949      -0.23393626
C       -0.80524000       2.32452000      10.29672120      -0.29643895       0.25597744      -0.23398349
C       -1.61042000       4.64894000      10.32117490      -0.02339075      -0.02412033      -0.02483453
C       -2.41566000       6.97346000      10.32150066       0.00992521       0.01605636      -0.02420336
C       -3.22084000       9.29789000      10.32217639       0.14969705      -0.13260895      -0.10366051
C        1.61048000       1.85962000      10.29672328       0.37277943       0.12583082      -0.23397784
C        0.80518000       4.18404000      10.32217550       0.04094635       0.19884987      -0.10366626
C       -0.00006000       6.50856000      10.32142336       0.01261841      -0.00555312      -0.02454419
C       -0.80524000       8.83298000      10.32142332      -0.00641217      -0.00497889      -0.02454249
C        4.02607000       1.39471000      10.32117456      -0.00772779       0.03010361      -0.02484084
C        3.22089000       3.71914000      10.32114792       0.01037213      -0.03232770      -0.02500312
C        2.41566000       6.04366000      10.32150039      -0.02084677      -0.00355936      -0.02420191
C        1.61048000       8.36808000      10.32142302      -0.00193119       0.00953006      -0.02454571
C        6.44179000       0.92981000      10.32150054       0.01018271      -0.01915154      -0.02420223
C        5.63661000       3.25423000      10.32150344      -0.00592468      -0.00496008      -0.03019053
C        4.83137000       5.57875000      10.32150299      -0.00793870       0.00483189      -0.03019249
C        4.02607000       7.90317000      10.32117466       0.03648479      -0.00497287      -0.02485099
C        8.85739000       0.46490000      10.32217584      -0.18763723      -0.06746280      -0.10366667
C        8.05221000       2.78933000      10.32114864       0.02493990       0.02788945      -0.02499741
C        7.24697000       5.11385000      10.32150280       0.00816057       0.00047794      -0.03018880
C        6.44179000       7.43827000      10.32114878      -0.03393040       0.01159757      -0.02500732
C        9.39427000       3.25423000      10.32208769      -0.15369407       0.13413925      -0.10333882
C       -2.68407000       5.57875000      10.32168855      -0.01022108      -0.02033605      -0.02565719
C       -3.48925000       7.90317000      10.32132405       0.02127174       0.02881498      -0.02485145
C        1.34206000       0.46490000      10.29703382       0.29290134      -0.25440615      -0.23776490
C        0.53688000       2.78933000      10.29702863       0.06954622       0.38332723      -0.23776923
C       -0.26836000       5.11385000      10.32128937       0.03237940      -0.00907140      -0.02504898
C       -1.07365000       7.43827000      10.32167580      -0.00688251       0.00284171      -0.03147055
C        3.75766000       0.00000000      10.32128944      -0.02197618      -0.02625181      -0.02504090
C        2.95248000       2.32442000      10.32208610       0.19074077       0.06974140      -0.10333370
C        2.14724000       4.64894000      10.32132463      -0.03360527       0.00666874      -0.02485529
C        1.34206000       6.97337000      10.32167552       0.00189605      -0.00331540      -0.03147305
C        0.53683000       9.29789000      10.32167615       0.00318706       0.00673244      -0.03147397
C        5.36814000       1.85962000      10.32168850      -0.01173292       0.01467095      -0.02565597
C        4.56296000       4.18404000      10.32163200      -0.00004201      -0.00842882      -0.02578454
C        3.75772000       6.50856000      10.32168795       0.02033596      -0.00219966      -0.02565663
C        2.95254000       8.83298000      10.32128902      -0.01348054       0.03637175      -0.02504598
C        7.78385000       1.39471000      10.32132353       0.00834974      -0.03521535      -0.02485408
C        6.97856000       3.71914000      10.32163247       0.01067239       0.00638570      -0.02578197
C        6.17332000       6.04366000      10.32163233      -0.00527942       0.00152896      -0.02578122
C        5.36814000       8.36808000      10.32208622      -0.03676745      -0.19734767      -0.10337305
C       10.19945000       0.92981000      10.29703302      -0.36656201      -0.12741209      -0.23778160
Li       0.26840498       1.39470146      11.86510359      -0.00005648      -0.00007719       0.13828881
85
Lattice="11.273099899 0.0 0.0 -5.63654995 9.762790892 0.0 0.0 0.0 24.0" Properties=species:S:1:pos:R:3:forces:R:3 energy=-782.0823707155972 stress="-0.06661829285645474 3.7188977917834058e-06 1.8426396693584772e-08 3.7188977917834058e-06 -0.06661731297878958 6.982141095102529e-08 1.8426396693584772e-08 6.982141095102529e-08 -0.0025943809280296066" free_energy=-782.0823707155972 pbc="T T T"
C        0.00000000       0.00000000      13.78690732      -0.04755549      -0.24806898       0.29218120
C       -0.80524000       2.32452000      13.78692127      -0.19049188       0.16215537       0.29205185
C       -1.61042000       4.64894000      13.67379285       0.00115533      -0.03774203       0.26026092
C       -2.41566000       6.97346000      13.68649376      -0.00387171      -0.02122904      -0.07518594
C       -3.22084000       9.29789000      13.68865421       0.04311294      -0.04013485       0.46870865
C        1.61048000       1.85962000      13.78694089       0.23494867       0.08075016       0.29181491
C        0.80518000       4.18404000      13.68865131       0.01578976       0.06192726       0.46856861
C       -0.00006000       6.50856000      13.68662614      -0.00807086       0.01169853      -0.02805624
C       -0.80524000       8.83298000      13.68662718       0.01861913       0.00348131      -0.02809987
C        4.02607000       1.39471000      13.67379356      -0.03407289       0.01736348       0.26025334
C        3.22089000       3.71914000      13.67375476      -0.01757558      -0.03184650       0.26832913
C        2.41566000       6.04366000      13.68649578       0.01667593       0.00555247      -0.07520387
C        1.61048000       8.36808000      13.68662704      -0.00880824      -0.01471383      -0.02806198
C        6.44179000       0.92981000      13.68649350      -0.01551111       0.01067500      -0.07520537
C        5.63661000       3.25423000      13.68833986      -0.01213562       0.00126388      -0.09459009