85
Lattice="11.273099899 0.0 0.0 -5.63654995 9.762790892 0.0 0.0 0.0 24.0" Properties=species:S:1:pos:R:3:forces:R:3 energy=-782.3963431304445 stress="-0.06857104115638459 3.6016886545724857e-06 5.93401775735718e-18 3.6016886545724857e-06 -0.06857019734569114 -2.3721438938561632e-19 5.93401775735718e-18 -2.3721438938561632e-19 -9.809329397681109e-05" free_energy=-782.3963431304445 pbc="T T T"
C        0.00000000       0.00000000      13.87500000      -0.03468700      -0.18243137      -0.02516127
C       -0.80524000       2.32452000      13.87500000      -0.19567987      -0.07108857       0.03522823
C       -1.61042000       4.64894000      13.87500000      -0.14135257       0.12226960      -0.02514346
C       -2.41566000       6.97346000      13.87500000      -0.01284503      -0.01760846      -0.00375405
C       -3.22084000       9.29789000      13.87500000       0.01727947       0.01453157       0.00508509
C        1.61048000       1.85962000      13.87500000       0.15325819      -0.13783511       0.03525378
C        0.80518000       4.18404000      13.87500000       0.04269958       0.20479185       0.03523697
C       -0.00006000       6.50856000      13.87500000       0.02832351      -0.00144625       0.00508834
C       -0.80524000       8.83298000      13.87500000      -0.00425324       0.00067699      -0.00288189
C        4.02607000       1.39471000      13.87500000      -0.01185957      -0.02222001       0.00508184
C        3.22089000       3.71914000      13.87500000       0.17435826       0.06338055      -0.02515313
C        2.41566000       6.04366000      13.87500000      -0.02282389       0.00973384       0.00509474
C        1.61048000       8.36808000      13.87500000      -0.00005103      -0.00304579      -0.00288739
C        6.44179000       0.92981000      13.87500000       0.00201105       0.00375200      -0.00288364
C        5.63661000       3.25423000      13.87500000      -0.01085422       0.01975344      -0.00375533
C        4.83137000       5.57875000      13.87500000       0.00244330      -0.00706696      -0.00212179
C        4.02607000       7.90317000      13.87500000       0.02019766       0.00091770      -0.00375137
C        8.85739000       0.46490000      13.87500000      -0.00947430       0.02205143       0.00508101
C        8.05221000       2.78933000      13.87500000       0.00190219      -0.02155443       0.00509712
C        7.24697000       5.11385000      13.87500000       0.00439949       0.00756299      -0.00212029
C        6.44179000       7.43827000      13.87500000      -0.01165063       0.00197064      -0.00212234
C        7.51538000       6.50856000      13.87500000       0.00679120      -0.00291654      -0.00287905
C       -4.56290000       8.83298000      13.87500000      -0.02534975      -0.00002867       0.00508526
C        0.26841000       1.39471000      13.87500000      -0.04008882      -0.20399349       0.03523073
C       -0.53677000       3.71914000      13.87500000      -0.15986350       0.13727255       0.03528443
C       -1.34201000       6.04366000      13.87500000      -0.02407837      -0.01502850       0.00509189
C       -2.14730000       8.36808000      13.87500000       0.01475017       0.01654424      -0.00374414
C        2.68401000       0.92981000      13.87500000       0.14376344      -0.12240885      -0.02513790
C        1.87883000       3.25423000      13.87500000       0.19721667       0.07119062       0.03522964
C        1.07359000       5.57875000      13.87500000       0.03610373       0.18188990      -0.02515794
C        0.26841000       7.90317000      13.87500000       0.00900078       0.00472962      -0.00212549
C        5.09972000       0.46490000      13.87500000      -0.00316501      -0.00808618      -0.00211350
C        4.29449000       2.78942000      13.87500000       0.00081608       0.02178631       0.00510022
C        3.48931000       5.11385000      13.87500000       0.01163848      -0.02105853       0.00508496
C        2.68407000       7.43837000      13.87500000      -0.01945557      -0.00062875      -0.00374745
C        7.51544000       0.00000000      13.87500000      -0.00907783       0.00693793      -0.00211954
C        6.71020000       2.32452000      13.87500000       0.00625569      -0.02094481      -0.00375060
C        5.90491000       4.64894000      13.87500000       0.00029542      -0.00458568      -0.00288049
C        5.09967000       6.97346000      13.87500000       0.00097971       0.00276774      -0.00288594
C        4.29449000       9.29789000      13.87500000       0.02261915      -0.01064733       0.00509392
C        9.12580000       1.85962000      13.87500000      -0.17311205      -0.06300622      -0.02515873
C        8.32062000       4.18404000      13.87500000       0.01261508       0.02315526       0.00508194
C        0.00000000       0.00000000      10.12500000      -0.03468700      -0.18243137       0.02516127
C       -0.80524000       2.32452000      10.12500000      -0.19567987      -0.07108857      -0.03522823
C       -1.61042000       4.64894000      10.12500000      -0.14135257       0.12226960       0.02514346
C       -2.41566000       6.97346000      10.12500000      -0.01284503      -0.01760846       0.00375405
C       -3.22084000       9.29789000      10.12500000       0.01727947       0.01453157      -0.00508509
C        1.61048000       1.85962000      10.12500000       0.15325819      -0.13783511      -0.03525378
C        0.80518000       4.18404000      10.12500000       0.04269958       0.20479185      -0.03523697
C       -0.00006000       6.50856000      10.12500000       0.02832351      -0.00144625      -0.00508834
C       -0.80524000       8.83298000      10.12500000      -0.00425324       0.00067699       0.00288189
C        4.02607000       1.39471000      10.12500000      -0.01185957      -0.02222001      -0.00508184
C        3.22089000       3.71914000      10.12500000       0.17435826       0.06338055       0.02515313
C        2.41566000       6.04366000      10.12500000      -0.02282389       0.00973384      -0.00509474
C        1.61048000       8.36808000      10.12500000      -0.00005103      -0.00304579       0.00288739
C        6.44179000       0.92981000      10.12500000       0.00201105       0.00375200       0.00288364
C        5.63661000       3.25423000      10.12500000      -0.01085422       0.01975344       0.00375533
C        4.83137000       5.57875000      10.12500000       0.00244330      -0.00706696       0.00212179
C        4.02607000       7.90317000      10.12500000       0.02019766       0.00091770       0.00375137
C        8.85739000       0.46490000      10.12500000      -0.00947430       0.02205143      -0.00508101
C        8.05221000       2.78933000      10.12500000       0.00190219      -0.02155443      -0.00509712
C        7.24697000       5.11385000      10.12500000       0.00439949       0.00756299       0.00212029
C        6.44179000       7.43827000      10.12500000      -0.01165063       0.00197064       0.00212234
C        7.51538000       6.50856000      10.12500000       0.00679120      -0.00291654       0.00287905
C       -4.56290000       8.83298000      10.12500000      -0.02534975      -0.00002867      -0.00508526
C        0.26841000       1.39471000      10.12500000      -0.04008882      -0.20399349      -0.03523073
C       -0.53677000       3.71914000      10.12500000      -0.15986350       0.13727255      -0.03528443
C       -1.34201000       6.04366000      10.12500000      -0.02407837      -0.01502850      -0.00509189
C       -2.14730000       8.36808000      10.12500000       0.01475017       0.01654424       0.00374414
C        2.68401000       0.92981000      10.12500000       0.14376344      -0.12240885       0.02513790
C        1.87883000       3.25423000      10.12500000       0.19721667       0.07119062      -0.03522964
C        1.07359000       5.57875000      10.12500000       0.03610373       0.18188990       0.02515794
C        0.26841000       7.90317000      10.12500000       0.00900078       0.00472962       0.00212549
C        5.09972000       0.46490000      10.12500000      -0.00316501      -0.00808618       0.00211350
C        4.29449000       2.78942000      10.12500000       0.00081608       0.02178631      -0.00510022
C        3.48931000       5.11385000      10.12500000       0.01163848      -0.02105853      -0.00508496
C        2.68407000       7.43837000      10.12500000      -0.01945557      -0.00062875       0.00374745
C        7.51544000       0.00000000      10.12500000      -0.00907783       0.00693793       0.00211954
C        6.71020000       2.32452000      10.12500000       0.00625569      -0.02094481       0.00375060
C        5.90491000       4.64894000      10.12500000       0.00029542      -0.00458568       0.00288049
C        5.09967000       6.97346000      10.12500000       0.00097971       0.00276774       0.00288594
C        4.29449000       9.29789000      10.12500000       0.02261915      -0.01064733      -0.00509392
C        9.12580000       1.85962000      10.12500000      -0.17311205      -0.06300622       0.02515873
C        8.32062000       4.18404000      10.12500000       0.01261508       0.02315526      -0.00508194
Li       0.53680000       2.78938000      12.00000000       0.00000787      -0.00007250       0.00000000
85
Lattice="11.273099899 0.0 0.0 -5.63654995 9.762790892 0.0 0.0 0.0 24.0" Properties=species:S:1:pos:R:3:forces:R:3 energy=-782.3973660849729 stress="-0.06858074870117521 3.600797186051079e-06 1.738976286571294e-18 3.600797186051079e-06 -0.06857990242433089 -3.466768184894692e-18 1.738976286571294e-18 -3.466768184894692e-18 -8.487438288057469e-05" free_energy=-782.3973660849729 pbc="T T T"
C        0.00000000       0.00000000      13.87320277      -0.03479723      -0.18296828       0.00928548
C       -0.80524000       2.32452000      13.87751630      -0.19514072      -0.07089821       0.02128228
C       -1.61042000       4.64894000      13.87320404      -0.14175989       0.12263115       0.00930610
C       -2.41566000       6.97346000      13.87473185      -0.01287868      -0.01752747       0.00070946
C       -3.22084000       9.29789000      13.87536322       0.01729063       0.01412573      -0.00930116
C        1.61048000       1.85962000      13.87751813       0.15282731      -0.13745898       0.02128116
C        0.80518000       4.18404000      13.87751693       0.04258907       0.20422867       0.02127995
C       -0.00006000       6.50856000      13.87536345       0.02807171      -0.00113515      -0.00841923
C       -0.80524000       8.83298000      13.87479415      -0.00422930       0.00067553      -0.00358315
C        4.02607000       1.39471000      13.87536299      -0.01146417      -0.02215740      -0.00840766
C        3.22089000       3.71914000      13.87320335       0.17487769       0.06355276       0.00928406
C        2.41566000       6.04366000      13.87536391      -0.02247765       0.00994659      -0.00931357
C        1.61048000       8.36808000      13.87479376      -0.00006172      -0.00302465      -0.00358828
C        6.44179000       0.92981000      13.87479403       0.00199797       0.00373221      -0.00358529
C        5.63661000       3.25423000      13.87473176      -0.01076747       0.01974204       0.00071149
C        4.83137000       5.57875000      13.87484844       0.00254876      -0.00696414      -0.00001096
C        4.02607000       7.90317000      13.87473205       0.02014438       0.00084794       0.00070963
C        8.85739000       0.46490000      13.87536293      -0.00961813       0.02167812      -0.00841906
C        8.05221000       2.78933000      13.87536408       0.00154601      -0.02136118      -0.00930874
C        7.24697000       5.11385000      13.87484855       0.00425792       0.00760272      -0.00001212
C        6.44179000       7.43827000      13.87484840      -0.01161439       0.00182807      -0.00001052
C        7.51538000       6.50856000      13.87479435       0.00676744      -0.00291501      -0.00358879
C       -4.56290000       8.83298000      13.87536323      -0.02509843      -0.00033928      -0.00842345
C        0.26841000       1.39471000      13.87751648      -0.03998153      -0.20343382       0.02126853
C       -0.53677000       3.71914000      13.87752032      -0.15942684       0.13689688       0.02127478
C       -1.34201000       6.04366000      13.87536371      -0.02408928      -0.01462204      -0.00930834
C       -2.14730000       8.36808000      13.87473256       0.01478365       0.01646323       0.00070279
C        2.68401000       0.92981000      13.87320444       0.14417207      -0.12277219       0.00928671
C        1.87883000       3.25423000      13.87751640       0.19667585       0.07100074       0.02127288
C        1.07359000       5.57875000      13.87320300       0.03621371       0.18242500       0.00929034
C        0.26841000       7.90317000      13.87484818       0.00896438       0.00487224      -0.00001254
C        5.09972000       0.46490000      13.87484904      -0.00302328      -0.00812610      -0.00001372
C        4.29449000       2.78942000      13.87536430       0.00117273       0.02159315      -0.00930958
C        3.48931000       5.11385000      13.87536321       0.01178188      -0.02068500      -0.00841763
C        2.68407000       7.43837000      13.87473232      -0.01940228      -0.00055921       0.00070768
C        7.51544000       0.00000000      13.87484860      -0.00918294       0.00683525      -0.00001500
C        6.71020000       2.32452000      13.87473210       0.00616868      -0.02093352       0.00070686
C        5.90491000       4.64894000      13.87479425       0.00030845      -0.00456572      -0.00359002
C        5.09967000       6.97346000      13.87479386       0.00099032       0.00274641      -0.00358916
C        4.29449000       9.29789000      13.87536385       0.02227369      -0.01085949      -0.00931559
C        9.12580000       1.85962000      13.87320295      -0.17363230      -0.06317919       0.00928071
C        8.32062000       4.18404000      13.87536300       0.01221890       0.02309292      -0.00841400
C        0.00000000       0.00000000      10.12679723      -0.03479723      -0.18296828      -0.00928548
C       -0.80524000       2.32452000      10.12248370      -0.19514072      -0.07089821      -0.02128228
C       -1.61042000       4.64894000      10.12679596      -0.14175989       0.12263115      -0.00930610
C       -2.41566000       6.97346000      10.12526815      -0.01287868      -0.01752747      -0.00070946
C       -3.22084000       9.29789000      10.12463678       0.01729063       0.01412573       0.00930116
C        1.61048000       1.85962000      10.12248187       0.15282731      -0.13745898      -0.02128116
C        0.80518000       4.18404000      10.12248307       0.04258907       0.20422867      -0.02127995
C       -0.00006000       6.50856000      10.12463655       0.02807171      -0.00113515       0.00841923
C       -0.80524000       8.83298000      10.12520585      -0.00422930       0.00067553       0.00358315
C        4.02607000       1.39471000      10.12463701      -0.01146417      -0.02215740       0.00840766
C        3.22089000       3.71914000      10.12679665       0.17487769       0.06355276      -0.00928406
C        2.41566000       6.04366000      10.12463609      -0.02247765       0.00994659       0.00931357
C        1.61048000       8.36808000      10.12520624      -0.00006172      -0.00302465       0.00358828
C        6.44179000       0.92981000      10.12520597       0.00199797       0.00373221       0.00358529
C        5.63661000       3.25423000      10.12526824      -0.01076747       0.01974204      -0.00071149
C        4.83137000       5.57875000      10.12515156       0.00254876      -0.00696414       0.00001096
C        4.02607000       7.90317000      10.12526795       0.02014438       0.00084794      -0.00070963
C        8.85739000       0.46490000      10.12463707      -0.00961813       0.02167812       0.00841906
C        8.05221000       2.78933000      10.12463592       0.00154601      -0.02136118       0.00930874
C        7.24697000       5.11385000      10.12515145       0.00425792       0.00760272       0.00001212
C        6.44179000       7.43827000      10.12515160      -0.01161439       0.00182807       0.00001052
C        7.51538000       6.50856000      10.12520565       0.00676744      -0.00291501       0.00358879
C       -4.56290000       8.83298000      10.12463677      -0.02509843      -0.00033928       0.00842345
C        0.26841000       1.39471000      10.12248352      -0.03998153      -0.20343382      -0.02126853
C       -0.53677000       3.71914000      10.12247968      -0.15942684       0.13689688      -0.02127478
C       -1.34201000       6.04366000      10.12463629      -0.02408928      -0.01462204       0.00930834
C       -2.14730000       8.36808000      10.12526744       0.01478365       0.01646323      -0.00070279
C        2.68401000       0.92981000      10.12679556       0.14417207      -0.12277219      -0.00928671
C        1.87883000       3.25423000      10.12248360       0.19667585       0.07100074      -0.02127288
C        1.07359000       5.57875000      10.12679700       0.03621371       0.18242500      -0.00929034
C        0.26841000       7.90317000      10.12515182       0.00896438       0.00487224       0.00001254
C        5.09972000       0.46490000      10.12515096      -0.00302328      -0.00812610       0.00001372
C        4.29449000       2.78942000      10.12463570       0.00117273       0.02159315       0.00930958
C        3.48931000       5.11385000      10.12463679       0.01178188      -0.02068500       0.00841763
C        2.68407000       7.43837000      10.12526768      -0.01940228      -0.00055921      -0.00070768
C        7.51544000       0.00000000      10.12515140      -0.00918294       0.00683525       0.00001500
C        6.71020000       2.32452000      10.12526790       0.00616868      -0.02093352      -0.00070686
C        5.90491000       4.64894000      10.12520575       0.00030845      -0.00456572       0.00359002
C        5.09967000       6.97346000      10.12520614       0.00099032       0.00274641       0.00358916
C        4.29449000       9.29789000      10.12463615       0.02227369      -0.01085949       0.00931559
C        9.12580000       1.85962000      10.12679705      -0.17363230      -0.06317919      -0.00928071
C        8.32062000       4.18404000      10.12463700       0.01221890       0.02309292       0.00841400
Li       0.53680056       2.78937482      12.00000000       0.00000606      -0.00006265      -0.00000000
85
Lattice="11.273099899 0.0 0.0 -5.63654995 9.762790892 0.0 0.0 0.0 24.0" Properties=species:S:1:pos:R:3:forces:R:3 energy=-782.3984737376347 stress="-0.06859418016493883 3.602944444408622e-06 3.7510583229532935e-19 3.602944444408622e-06 -0.06859332822689856 -6.436163367267199e-18 3.7510583229532935e-19 -6.436163367267199e-18 -5.4551996135803665e-05" free_energy=-782.3984737376347 pbc="T T T"
C        0.00000000       0.00000000      13.87457651      -0.03482305      -0.18314400      -0.00290420
C       -0.80524000       2.32452000      13.88381363      -0.19470666      -0.07073762       0.01037081
C       -1.61042000       4.64894000      13.87458333      -0.14189393       0.12273627      -0.00291568
C       -2.41566000       6.97346000      13.87477473      -0.01282211      -0.01741954      -0.01837127
C       -3.22084000       9.29789000      13.87330525       0.01764312       0.01343918       0.01459571
C        1.61048000       1.85962000      13.88381605       0.15248077      -0.13715435       0.01037407
C        0.80518000       4.18404000      13.88381399       0.04249820       0.20376791       0.01038195
C       -0.00006000       6.50856000      13.87351707       0.02795196      -0.00037458       0.01103761
C       -0.80524000       8.83298000      13.87383726      -0.00404117       0.00067898       0.01226183
C        4.02607000       1.39471000      13.87351916      -0.01074683      -0.02243357       0.01101965
C        3.22089000       3.71914000      13.87457702       0.17503848       0.06361670      -0.00287812
C        2.41566000       6.04366000      13.87330329      -0.02205775       0.01059601       0.01463698
C        1.61048000       8.36808000      13.87383546      -0.00015863      -0.00286420       0.01227821
C        6.44179000       0.92981000      13.87383657       0.00190714       0.00356830       0.01226919
C        5.63661000       3.25423000      13.87477509      -0.01070260       0.01963865      -0.01836825
C        4.83137000       5.57875000      13.87477390       0.00262839      -0.00693152      -0.02071977
C        4.02607000       7.90317000      13.87477506       0.02002248       0.00084283      -0.01837082
C        8.85739000       0.46490000      13.87351634      -0.01021694       0.02119526       0.01101821
C        8.05221000       2.78933000      13.87330470       0.00077559      -0.02132209       0.01460497
C        7.24697000       5.11385000      13.87477378       0.00419045       0.00765498      -0.02071723
C        6.44179000       7.43827000      13.87477395      -0.01162630       0.00174311      -0.02072904
C        7.51538000       6.50856000      13.87383621       0.00658021      -0.00291844       0.01228492
C       -4.56290000       8.83298000      13.87351573      -0.02498001      -0.00109809       0.01105726
C        0.26841000       1.39471000      13.88381060      -0.03989932      -0.20298513       0.01043098
C       -0.53677000       3.71914000      13.88381775      -0.15906627       0.13659317       0.01041332
C       -1.34201000       6.04366000      13.87330424      -0.02444152      -0.01393439       0.01464793
C       -2.14730000       8.36808000      13.87477418       0.01472677       0.01635499      -0.01833442
C        2.68401000       0.92981000      13.87457926       0.14430926      -0.12288126      -0.00286392
C        1.87883000       3.25423000      13.88381153       0.19623685       0.07084379       0.01041068
C        1.07359000       5.57875000      13.87457802       0.03623820       0.18259209      -0.00289002
C        0.26841000       7.90317000      13.87477313       0.00897580       0.00495758      -0.02071192
C        5.09972000       0.46490000      13.87477411      -0.00295515      -0.00817900      -0.02069418
C        4.29449000       2.78942000      13.87330482       0.00194470       0.02155448       0.01463033
C        3.48931000       5.11385000      13.87351710       0.01237952      -0.02020141       0.01103001
C        2.68407000       7.43837000      13.87477500      -0.01928048      -0.00055473      -0.01836493
C        7.51544000       0.00000000      13.87477317      -0.00926209       0.00680309      -0.02070755
C        6.71020000       2.32452000      13.87477447       0.00610297      -0.02083078      -0.01834935
C        5.90491000       4.64894000      13.87383577       0.00039922      -0.00440130       0.01228440
C        5.09967000       6.97346000      13.87383540       0.00108710       0.00258547       0.01228783
C        4.29449000       9.29789000      13.87330272       0.02185610      -0.01150712       0.01463564
C        9.12580000       1.85962000      13.87457563      -0.17379356      -0.06324452      -0.00285547
C        8.32062000       4.18404000      13.87351765       0.01149985       0.02336972       0.01106023
C        0.00000000       0.00000000      10.12542349      -0.03482305      -0.18314400       0.00290420
C       -0.80524000       2.32452000      10.11618637      -0.19470666      -0.07073762      -0.01037081
C       -1.61042000       4.64894000      10.12541667      -0.14189393       0.12273627       0.00291568
C       -2.41566000       6.97346000      10.12522527      -0.01282211      -0.01741954       0.01837127
C       -3.22084000       9.29789000      10.12669475       0.01764312       0.01343918      -0.01459571
C        1.61048000       1.85962000      10.11618395       0.15248077      -0.13715435      -0.01037407
C        0.80518000       4.18404000      10.11618601       0.04249820       0.20376791      -0.01038195
C       -0.00006000       6.50856000      10.12648293       0.02795196      -0.00037458      -0.01103761
C       -0.80524000       8.83298000      10.12616274      -0.00404117       0.00067898      -0.01226183
C        4.02607000       1.39471000      10.12648084      -0.01074683      -0.02243357      -0.01101965
C        3.22089000       3.71914000      10.12542298       0.17503848       0.06361670       0.00287812
C        2.41566000       6.04366000      10.12669671      -0.02205775       0.01059601      -0.01463698
C        1.61048000       8.36808000      10.12616454      -0.00015863      -0.00286420      -0.01227821
C        6.44179000       0.92981000      10.12616343       0.00190714       0.00356830      -0.01226919
C        5.63661000       3.25423000      10.12522491      -0.01070260       0.01963865       0.01836825
C        4.83137000       5.57875000      10.12522610       0.00262839      -0.00693152       0.02071977
C        4.02607000       7.90317000      10.12522494       0.02002248       0.00084283       0.01837082
C        8.85739000       0.46490000      10.12648366      -0.01021694       0.02119526      -0.01101821
C        8.05221000       2.78933000      10.12669530       0.00077559      -0.02132209      -0.01460497
C        7.24697000       5.11385000      10.12522622       0.00419045       0.00765498       0.02071723
C        6.44179000       7.43827000      10.12522605      -0.01162630       0.00174311       0.02072904
C        7.51538000       6.50856000      10.12616379       0.00658021      -0.00291844      -0.01228492
C       -4.56290000       8.83298000      10.12648427      -0.02498001      -0.00109809      -0.01105726
C        0.26841000       1.39471000      10.11618940      -0.03989932      -0.20298513      -0.01043098
C       -0.53677000       3.71914000      10.11618225      -0.15906627       0.13659317      -0.01041332
C       -1.34201000       6.04366000      10.12669576      -0.02444152      -0.01393439      -0.01464793
C       -2.14730000       8.36808000      10.12522582       0.01472677       0.01635499       0.01833442
C        2.68401000       0.92981000      10.12542074       0.14430926      -0.12288126       0.00286392
C        1.87883000       3.25423000      10.11618847       0.19623685       0.07084379      -0.01041068
C        1.07359000       5.57875000      10.12542198       0.03623820       0.18259209       0.00289002
C        0.26841000       7.90317000      10.12522687       0.00897580       0.00495758       0.02071192
C        5.09972000       0.46490000      10.12522589      -0.00295515      -0.00817900       0.02069418
C        4.29449000       2.78942000      10.12669518       0.00194470       0.02155448      -0.01463033
C        3.48931000       5.11385000      10.12648290       0.01237952      -0.02020141      -0.01103001
C        2.68407000       7.43837000      10.12522500      -0.01928048      -0.00055473       0.01836493
C        7.51544000       0.00000000      10.12522683      -0.00926209       0.00680309       0.02070755
C        6.71020000       2.32452000      10.12522553       0.00610297      -0.02083078       0.01834935
C        5.90491000       4.64894000      10.12616423       0.00039922      -0.00440130      -0.01228440
C        5.09967000       6.97346000      10.12616460       0.00108710       0.00258547      -0.01228783
C        4.29449000       9.29789000      10.12669728       0.02185610      -0.01150712      -0.01463564
C        9.12580000       1.85962000      10.12542437      -0.17379356      -0.06324452       0.00285547
C        8.32062000       4.18404000      10.12648235       0.01149985       0.02336972      -0.01106023
Li       0.53680228       2.78935734      12.00000000       0.00000252      -0.00002988       0.00000000
85
Lattice="11.273099899 0.0 0.0 -5.63654995 9.762790892 0.0 0.0 0.0 24.0" Properties=species:S:1:pos:R:3:forces:R:3 energy=-782.3991381406593 stress="-0.06860240641715598 3.605095291386136e-06 -8.835964394550534e-18 3.605095291386136e-06 -0.06860154764690932 -8.600823033961275e-18 -8.835964394550534e-18 -8.600823033961275e-18 -3.318032881907752e-05" free_energy=-782.3991381406593 pbc="T T T"
C        0.00000000       0.00000000      13.87521095      -0.03479876      -0.18313172       0.00678068
C       -0.80524000       2.32452000      13.88841366      -0.19454106      -0.07068185       0.00126426
C       -1.61042000       4.64894000      13.87522035      -0.14189226       0.12270600       0.00675576
C       -2.41566000       6.97346000      13.87348878      -0.01294231      -0.01735130      -0.01015420
C       -3.22084000       9.29789000      13.87308659       0.01772151       0.01303979       0.01125485
C        1.61048000       1.85962000      13.88841668       0.15235673      -0.13703256       0.00126332
C        0.80518000       4.18404000      13.88841466       0.04245453       0.20359275       0.00124864
C       -0.00006000       6.50856000      13.87317393       0.02775895      -0.00006381       0.00778254
C       -0.80524000       8.83298000      13.87412669      -0.00396926       0.00066161      -0.01363050
C        4.02607000       1.39471000      13.87317631      -0.01038208      -0.02242165       0.00777082
C        3.22089000       3.71914000      13.87521328       0.17501317       0.06363057       0.00677356
C        2.41566000       6.04366000      13.87308596      -0.02174985       0.01086399       0.01125228
C        1.61048000       8.36808000      13.87412519      -0.00017957      -0.00279382      -0.01363192
C        6.44179000       0.92981000      13.87412617       0.00185637       0.00351517      -0.01362976
C        5.63661000       3.25423000      13.87348962      -0.01058387       0.01970827      -0.01016798