101
Lattice="12.300000191 0.0 0.0 -6.150000095 10.652112632 0.0 0.0 0.0 24.0" Properties=species:S:1:pos:R:3:forces:R:3 energy=-930.0974494478157 stress="-0.06621097881252308 -1.6132145203355498e-05 6.3759667776880475e-09 -1.6132145203355498e-05 -0.06623002432879337 -5.966143380244415e-09 6.3759667776880475e-09 -5.966143380244415e-09 -0.004654975593508107" free_energy=-930.0974494478157 pbc="T T T"
C        0.00000000       0.00000000      13.67500000       0.00235266      -0.31852822       0.18881698
C       11.07000000       2.13042000      13.67500000      -0.27216814       0.15741463       0.18877042
C       -2.46000000       4.26085000      13.67500000       0.00234246      -0.02167957       0.03269248
C       -3.69000000       6.39127000      13.67500000       0.00220987      -0.00167183       0.03528710
C       -4.92000000       8.52169000      13.67500000      -0.01500321       0.00876684       0.03270677
C        2.46000000       0.00000000      13.67500000       0.06397401      -0.03680909       0.06128190
C        1.23000000       2.13042000      13.67500000       0.27715602       0.15757634       0.18882389
C       -0.00000000       4.26085000      13.67500000       0.00231779       0.06949558       0.06127761
C       -1.23000000       6.39127000      13.67500000      -0.01720941       0.00042665       0.03629203
C       -2.46000000       8.52169000      13.67500000      -0.00568410      -0.01926384       0.03629779
C        4.92000000       0.00000000      13.67500000       0.01384560       0.01467855       0.03629747
C        3.69000000       2.13042000      13.67500000      -0.01509660       0.00887888       0.03270681
C        2.46000000       4.26085000      13.67500000       0.00217964      -0.02172327       0.03269742
C        1.23000000       6.39127000      13.67500000       0.02183892       0.00042158       0.03629334
C        0.00000000       8.52169000      13.67500000       0.00232570      -0.00134112       0.03691833
C        7.38000000       0.00000000      13.67500000      -0.00920480       0.01467818       0.03629246
C        6.15000000       2.13042000      13.67500000       0.00231857      -0.00094207       0.03528768
C        4.92000000       4.26085000      13.67500000      -0.01733785      -0.01302584       0.03712215
C        3.69000000       6.39127000      13.67500000       0.00242161      -0.00166881       0.03528749
C        2.46000000       8.52169000      13.67500000       0.01031963      -0.01925774       0.03629409
C        9.84000000       0.00000000      13.67500000      -0.05930534      -0.03679476       0.06127742
C        8.61000000       2.13042000      13.67500000       0.01966296       0.00891600       0.03269324
C        7.38000000       4.26085000      13.67500000       0.02197999      -0.01302047       0.03711898
C        6.15000000       6.39127000      13.67500000       0.00232556       0.02109247       0.03712166
C        4.92000000       8.52169000      13.67500000       0.01961689       0.00880901       0.03269814
C        0.00006000       1.42025000      13.67500000      -0.00264386       0.00129006       3.83151977
C       -1.22994000       3.55067000      13.67500000      -0.02529129       0.15632951       0.04861384
C       -2.45994000       5.68109000      13.67500000       0.00499800       0.02514270       0.02843023
C       -3.68994000       7.81151000      13.67500000       0.02173342      -0.00377554       0.02842088
C       -4.91994000       9.94194000      13.67500000       0.12035499      -0.09630551       0.04861241
C        2.46006000       1.42025000      13.67500000       0.14341353      -0.05639822       0.04861282
C        1.23006000       3.55067000      13.67500000       0.02071929       0.15638328       0.04859725
C        0.00006000       5.68109000      13.67500000      -0.00231153      -0.01202798       0.02222569
C       -1.22994000       7.81151000      13.67500000      -0.00767083      -0.00142197       0.03218604
C       -2.45994000       9.94194000      13.67500000      -0.01409592       0.00793794       0.02221436
C        4.92006000       1.42025000      13.67500000       0.01442182      -0.01698715       0.02842122
C        3.69006000       3.55067000      13.67500000       0.02007098       0.01425724       0.02909828
C        2.46006000       5.68109000      13.67500000      -0.00962897       0.02514591       0.02842669
C        1.23006000       7.81151000      13.67500000       0.00302973      -0.00142013       0.03218695
C        0.00006000       9.94194000      13.67500000      -0.00232249       0.00732045       0.03218625
C        7.38006000       1.42025000      13.67500000      -0.01903922      -0.01698131       0.02843011
C        6.15006000       3.55067000      13.67500000      -0.00232917      -0.00737675       0.03121122
C        4.92006000       5.68109000      13.67500000      -0.00988371       0.00597957       0.03121111
C        3.69006000       7.81151000      13.67500000      -0.02635539      -0.00376853       0.02842623
C        2.46006000       9.94194000      13.67500000       0.00949173       0.00795253       0.02222530
C        9.84006000       1.42025000      13.67500000      -0.14802219      -0.05647200       0.04861358
C        8.61006000       3.55067000      13.67500000      -0.02466598       0.01425948       0.02910690
C        7.38006000       5.68109000      13.67500000       0.00523983       0.00598769       0.03121109
C        6.15006000       7.81151000      13.67500000      -0.00229504      -0.02417142       0.02909804
C        4.92006000       9.94194000      13.67500000      -0.12505888      -0.09632576       0.04859661
C        0.00000000       0.00000000      10.32500000      -0.00253577      -0.30497911      -0.22555700
C       11.07000000       2.13042000      10.32500000      -0.26764763       0.15488707      -0.22550149
C       -2.46000000       4.26085000      10.32500000      -0.02082962      -0.01917214      -0.04096124
C       -3.69000000       6.39127000      10.32500000       0.01455824       0.01089715      -0.03433155
C       -4.92000000       8.52169000      10.32500000      -0.02906679      -0.00455723      -0.04094373
C        2.46000000       0.00000000      10.32500000       0.16926464      -0.09753887      -0.00783467
C        1.23000000       2.13042000      10.32500000       0.26301447       0.15513044      -0.22556186
C       -0.00000000       4.26085000      10.32500000      -0.00222737       0.19898719      -0.00783843
C       -1.23000000       6.39127000      10.32500000       0.00451816      -0.00307462      -0.03546662
C       -2.46000000       8.52169000      10.32500000      -0.00252262       0.00938068      -0.03545646
C        4.92000000       0.00000000      10.32500000      -0.00935268      -0.00229524      -0.03545644
C        3.69000000       2.13042000      10.32500000      -0.01054931       0.02780129      -0.04094435
C        2.46000000       4.26085000      10.32500000       0.01621526      -0.01921479      -0.04094815
C        1.23000000       6.39127000      10.32500000      -0.00914638      -0.00307429      -0.03546313
C        0.00000000       8.52169000      10.32500000      -0.00232448       0.00138117      -0.03796174
C        7.38000000       0.00000000      10.32500000       0.00475339      -0.00228200      -0.03546731
C        6.15000000       2.13042000      10.32500000      -0.00232358      -0.01782140      -0.03433227
C        4.92000000       4.26085000      10.32500000       0.00247184       0.00383487      -0.03550961
C        3.69000000       6.39127000      10.32500000      -0.01919852       0.01088903      -0.03433180
C        2.46000000       8.52169000      10.32500000      -0.00208006       0.00939840      -0.03546385
C        9.84000000       0.00000000      10.32500000      -0.17367774      -0.09751592      -0.00783929
C        8.61000000       2.13042000      10.32500000       0.00595821       0.02782070      -0.04096147
C        7.38000000       4.26085000      10.32500000      -0.00711533       0.00383579      -0.03551171
C        6.15000000       6.39127000      10.32500000      -0.00232088      -0.00438994      -0.03550893
C        4.92000000       8.52169000      10.32500000       0.02451469      -0.00453098      -0.04094777
C        1.22994000       0.71018000      10.32500000       0.26150345      -0.15129641      -0.21244049
C       -0.00006000       2.84060000      10.32500000       0.00246987       0.29792940      -0.21234449
C       -1.23006000       4.97102000      10.32500000       0.02922382       0.00475550      -0.03728998
C       -2.46006000       7.10144000      10.32500000      -0.01450344      -0.01079286      -0.02990666
C       -3.69006000       9.23187000      10.32500000       0.02086891       0.01884271      -0.03730742
C        3.68994000       0.71018000      10.32500000      -0.00609388      -0.02791171      -0.03730761
C        2.45994000       2.84060000      10.32500000       0.17407410       0.09790601      -0.00536533
C        1.22994000       4.97102000      10.32500000      -0.02468184       0.00474097      -0.03729315
C       -0.00006000       7.10144000      10.32500000       0.00231788       0.00435603      -0.03069407
C       -1.23006000       9.23187000      10.32500000       0.00702191      -0.00430359      -0.03069602
C        6.14994000       0.71018000      10.32500000       0.00232629       0.01779343      -0.02990678
C        4.91994000       2.84060000      10.32500000      -0.00487100       0.00230976      -0.03078508
C        3.68994000       4.97102000      10.32500000       0.00190266      -0.00918797      -0.03078301
C        2.45994000       7.10144000      10.32500000       0.01913911      -0.01078330      -0.02990707
C        1.22994000       9.23187000      10.32500000      -0.00238203      -0.00430097      -0.03069396
C        8.60994000       0.71018000      10.32500000       0.01066281      -0.02788286      -0.03728999
C        7.37994000       2.84060000      10.32500000       0.00946960       0.00232064      -0.03077673
C        6.14994000       4.97102000      10.32500000       0.00232144      -0.00114228      -0.03302602
C        4.91994000       7.10144000      10.32500000       0.00907948       0.00331153      -0.03078313
C        3.68994000       9.23187000      10.32500000      -0.01627705       0.01885882      -0.03729299
C       11.06994000       0.71018000      10.32500000      -0.25679149      -0.15143593      -0.21234807
C        9.83994000       2.84060000      10.32500000      -0.16958853       0.09789604      -0.00535669
C        8.60994000       4.97102000      10.32500000       0.00271580      -0.00917458      -0.03077667
C        7.37994000       7.10144000      10.32500000      -0.00444665       0.00332129      -0.03078515
C        6.14994000       9.23187000      10.32500000       0.00223789      -0.19995596      -0.00536452
Li       0.00006000       1.42025000      12.00000000      -0.00008652       0.00004686      -3.37361457
101
Lattice="12.300000191 0.0 0.0 -6.150000095 10.652112632 0.0 0.0 0.0 24.0" Properties=species:S:1:pos:R:3:forces:R:3 energy=-930.5000953691812 stress="-0.06623805846410306 -1.603186433398511e-05 1.2171438945483097e-07 -1.603186433398511e-05 -0.0662569957558486 -6.255176656608304e-08 1.2171438945483097e-07 -6.255176656608304e-08 -0.003474060056018508" free_energy=-930.5000953691812 pbc="T T T"
C        0.00000000       0.00000000      13.68108415       0.00224993      -0.23786597       0.74498369
C       11.07000000       2.13042000      13.68108265      -0.20262104       0.11725411       0.74522131
C       -2.46000000       4.26085000      13.67605343      -0.00533356      -0.01931491      -0.01911833
C       -3.69000000       6.39127000      13.67613704      -0.00039940      -0.00317761       0.02937979
C       -4.92000000       8.52169000      13.67605389      -0.01680239       0.00093976      -0.01910805
C        2.46000000       0.00000000      13.67697466       0.05740811      -0.03301866       0.09590150
C        1.23000000       2.13042000      13.68108438       0.20723470       0.11731842       0.74496857
C        0.00000000       4.26085000      13.67697452       0.00231678       0.06192387       0.09588329
C       -1.23000000       6.39127000      13.67616942      -0.01441785       0.00481019       0.02833307
C       -2.46000000       8.52169000      13.67616961      -0.00049269      -0.01903470       0.02833145
C        4.92000000       0.00000000      13.67616959       0.01624271       0.01006793       0.02833139
C        3.69000000       2.13042000      13.67605389      -0.00921679       0.01435039      -0.01910784
C        2.46000000       4.26085000      13.67605359       0.00986100      -0.01934844      -0.01911410
C        1.23000000       6.39127000      13.67616946       0.01904521       0.00480389       0.02833352
C        0.00000000       8.52169000      13.67618960       0.00232558      -0.00134107       0.03442221
C        7.38000000       0.00000000      13.67616943      -0.01160517       0.01006884       0.02833323
C        6.15000000       2.13042000      13.67613706       0.00231829       0.00207053       0.02938016
C        4.92000000       4.26085000      13.67619617      -0.01319893      -0.01063537       0.03333427
C        3.69000000       6.39127000      13.67613705       0.00503042      -0.00317463       0.02938117
C        2.46000000       8.52169000      13.67616949       0.00512770      -0.01902958       0.02833374
C        9.84000000       0.00000000      13.67697451      -0.05274786      -0.03300804       0.09588219
C        8.61000000       2.13042000      13.67605346       0.01377746       0.01438168      -0.01911841
C        7.38000000       4.26085000      13.67619607       0.01784090      -0.01063064       0.03333383
C        6.15000000       6.39127000      13.67619615       0.00232493       0.01631285       0.03333393
C        4.92000000       8.52169000      13.67605362       0.02140203       0.00097022      -0.01911440
C        0.00006000       1.42025000      13.79846111      -0.00238630       0.00115732      -0.17363470
C       -1.22994000       3.55067000      13.67656646      -0.03226328       0.15168319       0.01545869
C       -2.45994000       5.68109000      13.67591609       0.00492700       0.02075279       0.03210260
C       -3.68994000       7.81151000      13.67591579       0.01790277      -0.00164526       0.03210058
C       -4.91994000       9.94194000      13.67656641       0.11293332      -0.10006513       0.01547713
C        2.46006000       1.42025000      13.67656643       0.14295793      -0.04808943       0.01547977
C        1.23006000       3.55067000      13.67656592       0.02770449       0.15173928       0.01547143
C        0.00006000       5.68109000      13.67571617      -0.00230898      -0.00377791       0.03562996
C       -1.22994000       7.81151000      13.67603711      -0.00740096      -0.00126506       0.03419622
C       -2.45994000       9.94194000      13.67571580      -0.00694449       0.00380927       0.03562828
C        4.92006000       1.42025000      13.67591580       0.01066123      -0.01473459       0.03210069
C        3.69006000       3.55067000      13.67593762       0.02016112       0.01430850       0.03947929
C        2.46006000       5.68109000      13.67591598      -0.00955664       0.02075639       0.03209953
C        1.23006000       7.81151000      13.67603714       0.00275873      -0.00126362       0.03419594
C        0.00006000       9.94194000      13.67603712      -0.00232339       0.00700829       0.03419641
C        7.38006000       1.42025000      13.67591609      -0.01527343      -0.01472506       0.03210288
C        6.15006000       3.55067000      13.67600570      -0.00232804      -0.00769800       0.03391417
C        4.92006000       5.68109000      13.67600570      -0.01016158       0.00613987       0.03391405
C        3.69006000       7.81151000      13.67591596      -0.02251861      -0.00163694       0.03209971
C        2.46006000       9.94194000      13.67571615       0.00234806       0.00382540       0.03563027
C        9.84006000       1.42025000      13.67656645      -0.14747948      -0.04810772       0.01545922
C        8.61006000       3.55067000      13.67593790      -0.02475820       0.01431253       0.03948083
C        7.38006000       5.68109000      13.67600570       0.00551860       0.00614722       0.03391385
C        6.15006000       7.81151000      13.67593761      -0.00229454      -0.02427501       0.03947903
C        4.92006000       9.94194000      13.67656590      -0.11754105      -0.10005032       0.01546931
C        0.00000000       0.00000000      10.31773199      -0.00252717      -0.37917161      -0.28184286
C       11.07000000       2.13042000      10.31773378      -0.33189521       0.19197827      -0.28171531
C       -2.46000000       4.26085000      10.32368013      -0.01700721      -0.02732318      -0.03322693
C       -3.69000000       6.39127000      10.32389375       0.01525030       0.01129823      -0.03268832
C       -4.92000000       8.52169000      10.32368069      -0.03422580       0.00284042      -0.03322457
C        2.46000000       0.00000000      10.32474755       0.17175157      -0.09897360      -0.03568376
C        1.23000000       2.13042000      10.31773184       0.32727394       0.19221864      -0.28184456
C        0.00000000       4.26085000      10.32474743      -0.00224159       0.20189027      -0.03565055
C       -1.23000000       6.39127000      10.32385718       0.00443615      -0.00298575      -0.03249081
C       -2.46000000       8.52169000      10.32385750      -0.00248685       0.00926500      -0.03248835
C        4.92000000       0.00000000      10.32385751      -0.00923470      -0.00226838      -0.03248836
C        3.69000000       2.13042000      10.32368067      -0.01953480       0.02857069      -0.03322478
C        2.46000000       4.26085000      10.32368055       0.01238308      -0.02736826      -0.03322203
C        1.23000000       6.39127000      10.32385729      -0.00906402      -0.00298516      -0.03249018
C        0.00000000       8.52169000      10.32377678      -0.00232397       0.00138087      -0.03361444
C        7.38000000       0.00000000      10.32385715       0.00463550      -0.00225541      -0.03249110
C        6.15000000       2.13042000      10.32389373      -0.00232488      -0.01862138      -0.03268872
C        4.92000000       4.26085000      10.32385579       0.00234826       0.00376370      -0.03286325
C        3.69000000       6.39127000      10.32389374      -0.01989021       0.01128840      -0.03268884
C        2.46000000       8.52169000      10.32385727      -0.00211608       0.00928248      -0.03249048
C        9.84000000       0.00000000      10.32474740      -0.17619891      -0.09895400      -0.03565236
C        8.61000000       2.13042000      10.32368012       0.01492806       0.02858590      -0.03322722
C        7.38000000       4.26085000      10.32385572      -0.00699171       0.00376451      -0.03286180
C        6.15000000       6.39127000      10.32385581      -0.00232095      -0.00424728      -0.03286293
C        4.92000000       8.52169000      10.32368056       0.02965944       0.00286490      -0.03322211
C        1.22994000       0.71018000      10.31815464       0.32536968      -0.18816756      -0.28421149
C       -0.00006000       2.84060000      10.31815773       0.00246008       0.37160556      -0.28408916
C       -1.23006000       4.97102000      10.32379842       0.03526326      -0.00308769      -0.03307089
C       -2.46006000       7.10144000      10.32403633      -0.01516667      -0.01117623      -0.03275606
C       -3.69006000       9.23187000      10.32379786       0.01709631       0.02797459      -0.03307157
C        3.68994000       0.71018000      10.32379786      -0.01588921      -0.02921120      -0.03307179
C        2.45994000       2.84060000      10.32482712       0.17671850       0.09941562      -0.03816773
C        1.22994000       4.97102000      10.32379832      -0.03070501      -0.00310141      -0.03307093
C       -0.00006000       7.10144000      10.32401096       0.00231783       0.00413886      -0.03271396
C       -1.23006000       9.23187000      10.32401090       0.00683298      -0.00419450      -0.03271207
C        6.14994000       0.71018000      10.32403633       0.00232663       0.01855958      -0.03275636
C        4.91994000       2.84060000      10.32400803      -0.00476745       0.00218867      -0.03194091
C        3.68994000       4.97102000      10.32400809       0.00185093      -0.00903764      -0.03194089
C        2.45994000       7.10144000      10.32403632       0.01980126      -0.01116565      -0.03275646
C        1.22994000       9.23187000      10.32401096      -0.00219406      -0.00419237      -0.03271418
C        8.60994000       0.71018000      10.32379842       0.02047553      -0.02919180      -0.03307108
C        7.37994000       2.84060000      10.32400830       0.00936330       0.00220199      -0.03194214
C        6.14994000       4.97102000      10.32393582       0.00232153      -0.00114238      -0.03352718
C        4.91994000       7.10144000      10.32400809       0.00892346       0.00328101      -0.03194083
C        3.68994000       9.23187000      10.32379833      -0.01249651       0.02799600      -0.03307089
C       11.06994000       0.71018000      10.31815762      -0.32060286      -0.18826403      -0.28408812
C        9.83994000       2.84060000      10.32482739      -0.17221442       0.09941199      -0.03818569
C        8.60994000       4.97102000      10.32400830       0.00276538      -0.00902322      -0.03194193
C        7.37994000       7.10144000      10.32400803      -0.00429008       0.00329201      -0.03194065
C        6.14994000       9.23187000      10.32482714       0.00225265      -0.20300292      -0.03816463
Li       0.00005721       1.42025151      11.89129373      -0.00009963       0.00005537      -0.17830413
101
Lattice="12.300000191 0.0 0.0 -6.150000095 10.652112632 0.0 0.0 0.0 24.0" Properties=species:S:1:pos:R:3:forces:R:3 energy=-930.5988445207532 stress="-0.06637178745267043 -1.6000900002549394e-05 6.4746480782555116e-09 -1.6000900002549394e-05 -0.06639068713167114 -6.175076123578154e-09 6.4746480782555116e-09 -6.175076123578154e-09 -0.0032526531278889077" free_energy=-930.5988445207532 pbc="T T T"
C        0.00000000       0.00000000      13.73505671       0.00221993      -0.30239502      -0.04559471
C       11.07000000       2.13042000      13.73507199      -0.25853891       0.14953729      -0.04557357
C       -2.46000000       4.26085000      13.67481933      -0.00710624      -0.01943681       0.00214624
C       -3.69000000       6.39127000      13.67837752       0.00167188      -0.00197775       0.03832904
C       -4.92000000       8.52169000      13.67482058      -0.01779233      -0.00053947       0.00216220
C        2.46000000       0.00000000      13.68407124       0.07242310      -0.04168777      -0.01966826
C        1.23000000       2.13042000      13.73505588       0.26310125       0.14960657      -0.04559180
C        0.00000000       4.26085000      13.68406979       0.00231603       0.07928352      -0.01968812
C       -1.23000000       6.39127000      13.67833918      -0.01407635       0.00652417       0.03570648
C       -2.46000000       8.52169000      13.67833927       0.00116104      -0.01959450       0.03570297
C        4.92000000       0.00000000      13.67833926       0.01755432       0.00891560       0.03570316
C        3.69000000       2.13042000      13.67482060      -0.00843050       0.01594716       0.00216346
C        2.46000000       4.26085000      13.67481981       0.01164738      -0.01946388       0.00216269
C        1.23000000       6.39127000      13.67833926       0.01870303       0.00651787       0.03570357
C        0.00000000       8.52169000      13.67879682       0.00232603      -0.00134132       0.03567444
C        7.38000000       0.00000000      13.67833921      -0.01291869       0.00891610       0.03570701
C        6.15000000       2.13042000      13.67837757       0.00231517      -0.00032323       0.03832925
C        4.92000000       4.26085000      13.67872649      -0.00999013      -0.00878200       0.04205623
C        3.69000000       6.39127000      13.67837763       0.00295626      -0.00197672       0.03832541
C        2.46000000       8.52169000      13.67833930       0.00347232      -0.01959024       0.03570391
C        9.84000000       0.00000000      13.68406970      -0.06778259      -0.04168767      -0.01969003
C        8.61000000       2.13042000      13.67481935       0.01299581       0.01597796       0.00214644
C        7.38000000       4.26085000      13.67872635       0.01463168      -0.00877755       0.04206157
C        6.15000000       6.39127000      13.67872645       0.00232447       0.01260749       0.04205613
C        4.92000000       8.52169000      13.67481981       0.02239511      -0.00051988       0.00216160
C        0.00006000       1.42025000      13.80146924      -0.00234764       0.00113768       0.53515911
C       -1.22994000       3.55067000      13.67786618      -0.03061876       0.12805951       0.32206034
C       -2.45994000       5.68109000      13.67832348       0.00422714       0.02566366      -0.00908625
C       -3.68994000       7.81151000      13.67832300       0.02180305      -0.00470605      -0.00908477
C       -4.91994000       9.94194000      13.67786744       0.09333002      -0.08683733       0.32204485
C        2.46006000       1.42025000      13.67786765       0.12170174      -0.03772554       0.32203849
C        1.23006000       3.55067000      13.67786649       0.02606634       0.12811092       0.32197807
C        0.00006000       5.68109000      13.67835056      -0.00230978       0.00255006       0.01212798
C       -1.22994000       7.81151000      13.67860916      -0.00733413      -0.00122582       0.02787083
C       -2.45994000       9.94194000      13.67835003      -0.00146253       0.00064437       0.01214237
C        4.92006000       1.42025000      13.67832302       0.01526175      -0.01658206      -0.00908414
C        3.69006000       3.55067000      13.67887460       0.02021001       0.01434089       0.00889574
C        2.46006000       5.68109000      13.67832314      -0.00885586       0.02566480      -0.00907675
C        1.23006000       7.81151000      13.67860917       0.00269078      -0.00122439       0.02787360
C        0.00006000       9.94194000      13.67860918      -0.00232396       0.00693077       0.02787086
C        7.38006000       1.42025000      13.67832350      -0.01987636      -0.01657447      -0.00908660
C        6.15006000       3.55067000      13.67855368      -0.00232816      -0.00507702       0.02911964
C        4.92006000       5.68109000      13.67855367      -0.00789163       0.00482919       0.02912093
C        3.69006000       7.81151000      13.67832313      -0.02641919      -0.00469840      -0.00907773
C        2.46006000       9.94194000      13.67835057      -0.00313272       0.00066211       0.01212756
C        9.84006000       1.42025000      13.67786621      -0.12619773      -0.03771956       0.32205559
C        8.61006000       3.55067000      13.67887503      -0.02481900       0.01434780       0.00890861
C        7.38006000       5.68109000      13.67855365       0.00324873       0.00483672       0.02911929
C        6.15006000       7.81151000      13.67887458      -0.00229800      -0.02433397       0.00889606
C        4.92006000       9.94194000      13.67786631      -0.09789670      -0.08681573       0.32197974
C        0.00000000       0.00000000      10.29669315      -0.00252493      -0.39434854      -0.23397557
C       11.07000000       2.13042000      10.29670428      -0.34504877       0.19957208      -0.23391144
C       -2.46000000       4.26085000      10.32114203      -0.01687066      -0.02641058      -0.02518770
C       -3.69000000       6.39127000      10.32142079       0.01499472       0.01115009      -0.03042845
C       -4.92000000       8.52169000      10.32114283      -0.03336720       0.00250307      -0.02517668
C        2.46000000       0.00000000      10.32216720       0.17185975      -0.09903599      -0.10383222
C        1.23000000       2.13042000      10.29669286       0.34041854       0.19980470      -0.23397461
C        0.00000000       4.26085000      10.32216943      -0.00224321       0.20202500      -0.10375261
C       -1.23000000       6.39127000      10.32139376       0.00424838      -0.00186253      -0.02537655
C       -2.46000000       8.52169000      10.32139430      -0.00160709       0.00853963      -0.02537286
C        4.92000000       0.00000000      10.32139430      -0.00816659      -0.00266764      -0.02537299
C        3.69000000       2.13042000      10.32114279      -0.01881304       0.02799587      -0.02517793
C        2.46000000       4.26085000      10.32114285       0.01224564      -0.02645449      -0.02517139
C        1.23000000       6.39127000      10.32139393      -0.00887575      -0.00186175      -0.02537826
C        0.00000000       8.52169000      10.32122306      -0.00232373       0.00138074      -0.03167495
C        7.38000000       0.00000000      10.32139371       0.00356894      -0.00265443      -0.02537674
C        6.15000000       2.13042000      10.32142073      -0.00232428      -0.01832607      -0.03042861
C        4.92000000       4.26085000      10.32136559       0.00293607       0.00410257      -0.03171078
C        3.69000000       6.39127000      10.32142074      -0.01963327       0.01114018      -0.03042896
C        2.46000000       8.52169000      10.32139388      -0.00299477       0.00855781      -0.02537834
C        9.84000000       0.00000000      10.32216927      -0.17631638      -0.09901989      -0.10375177
C        8.61000000       2.13042000      10.32114200       0.01420591       0.02801128      -0.02518753