101
Lattice="12.300000191 0.0 0.0 -6.150000095 10.652112632 0.0 0.0 0.0 24.0" Properties=species:S:1:pos:R:3:forces:R:3 energy=-931.0521663004905 stress="-0.06822163790039316 -1.5352070508550602e-05 -4.08916891914288e-18 -1.5352070508550602e-05 -0.06823991164746261 -2.641775776364843e-18 -4.08916891914288e-18 -2.641775776364843e-18 -8.477997767027015e-05" free_energy=-931.0521663004905 pbc="T T T"
C        0.00000000       0.00000000      13.87500000      -0.17736631      -0.10496977       0.03526302
C       11.07000000       2.13042000      13.87500000      -0.15766733       0.09129815      -0.02513619
C       -2.46000000       4.26085000      13.87500000      -0.00267658      -0.00566162      -0.00228007
C       -3.69000000       6.39127000      13.87500000      -0.00365728      -0.00388094      -0.00227213
C       -4.92000000       8.52169000      13.87500000       0.00222189      -0.18586486      -0.02513492
C        2.46000000       0.00000000      13.87500000       0.18177906      -0.10482545       0.03520594
C        1.23000000       2.13042000      13.87500000       0.00232743       0.20640861       0.03525975
C       -0.00000000       4.26085000      13.87500000       0.02419989       0.00396336       0.00517011
C       -1.23000000       6.39127000      13.87500000      -0.01179029      -0.00974038      -0.00289141
C       -2.46000000       8.52169000      13.87500000       0.01811464       0.01485410       0.00518184
C        4.92000000       0.00000000      13.87500000      -0.00380366      -0.02299403       0.00518202
C        3.69000000       2.13042000      13.87500000       0.16206576       0.09126571      -0.02513426
C        2.46000000       4.26085000      13.87500000      -0.01965131       0.00394413       0.00517222
C        1.23000000       6.39127000      13.87500000       0.00231067       0.00521103      -0.00140172
C        0.00000000       8.52169000      13.87500000       0.00820999      -0.00473950      -0.00139986
C        7.38000000       0.00000000      13.87500000       0.00231210       0.01506844      -0.00289122
C        6.15000000       2.13042000      13.87500000       0.00130114       0.00524183      -0.00227204
C        4.92000000       4.26085000      13.87500000       0.00725964      -0.00567200      -0.00227394
C        3.69000000       6.39127000      13.87500000       0.01640144      -0.00973698      -0.00289115
C        2.46000000       8.52169000      13.87500000      -0.00358966      -0.00474018      -0.00140152
C        9.84000000       0.00000000      13.87500000       0.00839129      -0.02298178       0.00516984
C        8.61000000       2.13042000      13.87500000       0.00328372       0.00525387      -0.00228062
C        7.38000000       4.26085000      13.87500000       0.00231382      -0.00166117       0.00070549
C        6.15000000       6.39127000      13.87500000       0.00826024      -0.00387955      -0.00227457
C        4.92000000       8.52169000      13.87500000      -0.01352179       0.01488551       0.00517180
C        0.00006000       1.42025000      13.87500000      -0.18182844       0.10476584       0.03526947
C       -1.22994000       3.55067000      13.87500000      -0.01811403      -0.01485252       0.00518352
C       -2.45994000       5.68109000      13.87500000       0.01178699       0.00974503      -0.00289156
C       -3.68994000       7.81151000      13.87500000      -0.02419379      -0.00396310       0.00516852
C       -4.91994000       9.94194000      13.87500000      -0.00230389      -0.20631216       0.03523344
C        2.46006000       1.42025000      13.87500000       0.17735274       0.10483884       0.03522474
C        1.23006000       3.55067000      13.87500000      -0.00223198       0.18589560      -0.02513427
C        0.00006000       5.68109000      13.87500000       0.00365353       0.00387779      -0.00227259
C       -1.22994000       7.81151000      13.87500000       0.00266838       0.00565845      -0.00227977
C       -2.45994000       9.94194000      13.87500000       0.15763615      -0.09120708      -0.02513715
C        4.92006000       1.42025000      13.87500000      -0.00838215       0.02288213       0.00516792
C        3.69006000       3.55067000      13.87500000       0.01352974      -0.01486136       0.00517133
C        2.46006000       5.68109000      13.87500000      -0.00825989       0.00388733      -0.00227448
C        1.23006000       7.81151000      13.87500000      -0.00231024       0.00166013       0.00070546
C        0.00006000       9.94194000      13.87500000      -0.00328760      -0.00517338      -0.00228005
C        7.38006000       1.42025000      13.87500000      -0.00231265      -0.01516122      -0.00289146
C        6.15006000       3.55067000      13.87500000       0.00359040       0.00475231      -0.00140144
C        4.92006000       5.68109000      13.87500000      -0.01640260       0.00973904      -0.00289090
C        3.69006000       7.81151000      13.87500000      -0.00726440       0.00566977      -0.00227400
C        2.46006000       9.94194000      13.87500000      -0.00130212      -0.00516558      -0.00227238
C        9.84006000       1.42025000      13.87500000       0.00382000       0.02290758       0.00518375
C        8.61006000       3.55067000      13.87500000      -0.00820567       0.00475710      -0.00140012
C        7.38006000       5.68109000      13.87500000      -0.00230313      -0.00520629      -0.00140162
C        6.15006000       7.81151000      13.87500000       0.01965426      -0.00395141       0.00517217
C        4.92006000       9.94194000      13.87500000      -0.16208925      -0.09119673      -0.02513402
C        0.00000000       0.00000000      10.12500000      -0.17736631      -0.10496977      -0.03526302
C       11.07000000       2.13042000      10.12500000      -0.15766733       0.09129815       0.02513619
C       -2.46000000       4.26085000      10.12500000      -0.00267658      -0.00566162       0.00228007
C       -3.69000000       6.39127000      10.12500000      -0.00365728      -0.00388094       0.00227213
C       -4.92000000       8.52169000      10.12500000       0.00222189      -0.18586486       0.02513492
C        2.46000000       0.00000000      10.12500000       0.18177906      -0.10482545      -0.03520594
C        1.23000000       2.13042000      10.12500000       0.00232743       0.20640861      -0.03525975
C       -0.00000000       4.26085000      10.12500000       0.02419989       0.00396336      -0.00517011
C       -1.23000000       6.39127000      10.12500000      -0.01179029      -0.00974038       0.00289141
C       -2.46000000       8.52169000      10.12500000       0.01811464       0.01485410      -0.00518184
C        4.92000000       0.00000000      10.12500000      -0.00380366      -0.02299403      -0.00518202
C        3.69000000       2.13042000      10.12500000       0.16206576       0.09126571       0.02513426
C        2.46000000       4.26085000      10.12500000      -0.01965131       0.00394413      -0.00517222
C        1.23000000       6.39127000      10.12500000       0.00231067       0.00521103       0.00140172
C        0.00000000       8.52169000      10.12500000       0.00820999      -0.00473950       0.00139986
C        7.38000000       0.00000000      10.12500000       0.00231210       0.01506844       0.00289122
C        6.15000000       2.13042000      10.12500000       0.00130114       0.00524183       0.00227204
C        4.92000000       4.26085000      10.12500000       0.00725964      -0.00567200       0.00227394
C        3.69000000       6.39127000      10.12500000       0.01640144      -0.00973698       0.00289115
C        2.46000000       8.52169000      10.12500000      -0.00358966      -0.00474018       0.00140152
C        9.84000000       0.00000000      10.12500000       0.00839129      -0.02298178      -0.00516984
C        8.61000000       2.13042000      10.12500000       0.00328372       0.00525387       0.00228062
C        7.38000000       4.26085000      10.12500000       0.00231382      -0.00166117      -0.00070549
C        6.15000000       6.39127000      10.12500000       0.00826024      -0.00387955       0.00227457
C        4.92000000       8.52169000      10.12500000      -0.01352179       0.01488551      -0.00517180
C        0.00006000       1.42025000      10.12500000      -0.18182844       0.10476584      -0.03526947
C       -1.22994000       3.55067000      10.12500000      -0.01811403      -0.01485252      -0.00518352
C       -2.45994000       5.68109000      10.12500000       0.01178699       0.00974503       0.00289156
C       -3.68994000       7.81151000      10.12500000      -0.02419379      -0.00396310      -0.00516852
C       -4.91994000       9.94194000      10.12500000      -0.00230389      -0.20631216      -0.03523344
C        2.46006000       1.42025000      10.12500000       0.17735274       0.10483884      -0.03522474
C        1.23006000       3.55067000      10.12500000      -0.00223198       0.18589560       0.02513427
C        0.00006000       5.68109000      10.12500000       0.00365353       0.00387779       0.00227259
C       -1.22994000       7.81151000      10.12500000       0.00266838       0.00565845       0.00227977
C       -2.45994000       9.94194000      10.12500000       0.15763615      -0.09120708       0.02513715
C        4.92006000       1.42025000      10.12500000      -0.00838215       0.02288213      -0.00516792
C        3.69006000       3.55067000      10.12500000       0.01352974      -0.01486136      -0.00517133
C        2.46006000       5.68109000      10.12500000      -0.00825989       0.00388733       0.00227448
C        1.23006000       7.81151000      10.12500000      -0.00231024       0.00166013      -0.00070546
C        0.00006000       9.94194000      10.12500000      -0.00328760      -0.00517338       0.00228005
C        7.38006000       1.42025000      10.12500000      -0.00231265      -0.01516122       0.00289146
C        6.15006000       3.55067000      10.12500000       0.00359040       0.00475231       0.00140144
C        4.92006000       5.68109000      10.12500000      -0.01640260       0.00973904       0.00289090
C        3.69006000       7.81151000      10.12500000      -0.00726440       0.00566977       0.00227400
C        2.46006000       9.94194000      10.12500000      -0.00130212      -0.00516558       0.00227238
C        9.84006000       1.42025000      10.12500000       0.00382000       0.02290758      -0.00518375
C        8.61006000       3.55067000      10.12500000      -0.00820567       0.00475710       0.00140012
C        7.38006000       5.68109000      10.12500000      -0.00230313      -0.00520629       0.00140162
C        6.15006000       7.81151000      10.12500000       0.01965426      -0.00395141      -0.00517217
C        4.92006000       9.94194000      10.12500000      -0.16208925      -0.09119673       0.02513402
Li       1.22995000       0.71016000      12.00000000       0.00014223      -0.00006529       0.00000000
101
Lattice="12.300000191 0.0 0.0 -6.150000095 10.652112632 0.0 0.0 0.0 24.0" Properties=species:S:1:pos:R:3:forces:R:3 energy=-931.0531850994014 stress="-0.06822980562566265 -1.535006743790672e-05 6.1588311509035254e-18 -1.535006743790672e-05 -0.06824807686504661 5.838408458291862e-18 6.1588311509035254e-18 5.838408458291862e-18 -7.364028642828266e-05" free_energy=-931.0531850994014 pbc="T T T"
C        0.00000000       0.00000000      13.87751879      -0.17687019      -0.10467950       0.02125684
C       11.07000000       2.13042000      13.87320456      -0.15814284       0.09157271       0.00930014
C       -2.46000000       4.26085000      13.87483714      -0.00274817      -0.00555410       0.00091542
C       -3.69000000       6.39127000      13.87483771      -0.00360009      -0.00399656       0.00090828
C       -4.92000000       8.52169000      13.87320465       0.00222206      -0.18641658       0.00927439
C        2.46000000       0.00000000      13.87751471       0.18128543      -0.10454077       0.02123165
C        1.23000000       2.13042000      13.87751855       0.00232384       0.20583435       0.02125350
C        0.00000000       4.26085000      13.87536929       0.02391247       0.00422114      -0.00863480
C       -1.23000000       6.39127000      13.87479347      -0.01178557      -0.00973781      -0.00150417
C       -2.46000000       8.52169000      13.87537013       0.01819388       0.01447852      -0.00863948
C        4.92000000       0.00000000      13.87537014      -0.00343874      -0.02287495      -0.00864012
C        3.69000000       2.13042000      13.87320470       0.16254411       0.09154173       0.00926984
C        2.46000000       4.26085000      13.87536944      -0.01936442       0.00420258      -0.00863883
C        1.23000000       6.39127000      13.87489988       0.00231043       0.00523822      -0.00248708
C        0.00000000       8.52169000      13.87490001       0.00823345      -0.00475308      -0.00249186
C        7.38000000       0.00000000      13.87479348       0.00231227       0.01506309      -0.00150416
C        6.15000000       2.13042000      13.87483771       0.00142990       0.00525017       0.00090837
C        4.92000000       4.26085000      13.87483758       0.00733159      -0.00556449       0.00091041
C        3.69000000       6.39127000      13.87479349       0.01639689      -0.00973431      -0.00150285
C        2.46000000       8.52169000      13.87489989      -0.00361331      -0.00475359      -0.00248680
C        9.84000000       0.00000000      13.87536927       0.00802414      -0.02286175      -0.00863481
C        8.61000000       2.13042000      13.87483710       0.00315477       0.00526212       0.00091549
C        7.38000000       4.26085000      13.87505039       0.00231369      -0.00166111      -0.00242703
C        6.15000000       6.39127000      13.87483753       0.00820307      -0.00399561       0.00091038
C        4.92000000       8.52169000      13.87536941      -0.01360215       0.01450765      -0.00863820
C        0.00006000       1.42025000      13.87751925      -0.18132788       0.10447684       0.02125447
C       -1.22994000       3.55067000      13.87537025      -0.01819395      -0.01447458      -0.00864137
C       -2.45994000       5.68109000      13.87479346       0.01178255       0.00974213      -0.00150397
C       -3.68994000       7.81151000      13.87536918      -0.02390744      -0.00422087      -0.00863763
C       -4.91994000       9.94194000      13.87751667      -0.00230334      -0.20574136       0.02124471
C        2.46006000       1.42025000      13.87751605       0.17685936       0.10455335       0.02124397
C        1.23006000       3.55067000      13.87320469      -0.00223121       0.18644511       0.00928490
C        0.00006000       5.68109000      13.87483767       0.00359620       0.00399389       0.00090837
C       -1.22994000       7.81151000      13.87483716       0.00274041       0.00555108       0.00091658
C       -2.45994000       9.94194000      13.87320449       0.15811622      -0.09148417       0.00927516
C        4.92006000       1.42025000      13.87536914      -0.00801598       0.02276307      -0.00863666
C        3.69006000       3.55067000      13.87536938       0.01360905      -0.01448492      -0.00863422
C        2.46006000       5.68109000      13.87483754      -0.00820258       0.00400273       0.00090940
C        1.23006000       7.81151000      13.87505039      -0.00231038       0.00166019      -0.00242702
C        0.00006000       9.94194000      13.87483714      -0.00315866      -0.00518204       0.00091666
C        7.38006000       1.42025000      13.87479347      -0.00231234      -0.01515592      -0.00150412
C        6.15006000       3.55067000      13.87489990       0.00361388       0.00476606      -0.00248661
C        4.92006000       5.68109000      13.87479351      -0.01639792       0.00973635      -0.00150306
C        3.69006000       7.81151000      13.87483757      -0.00733569       0.00556241       0.00090933
C        2.46006000       9.94194000      13.87483769      -0.00143131      -0.00517392       0.00090837
C        9.84006000       1.42025000      13.87537027       0.00345279       0.02278778      -0.00864114
C        8.61006000       3.55067000      13.87489999      -0.00822911       0.00477061      -0.00249224
C        7.38006000       5.68109000      13.87489988      -0.00230331      -0.00523350      -0.00248691
C        6.15006000       7.81151000      13.87536944       0.01936774      -0.00420844      -0.00863495
C        4.92006000       9.94194000      13.87320471      -0.16256452      -0.09147194       0.00928523
C        0.00000000       0.00000000      10.12248121      -0.17687019      -0.10467950      -0.02125684
C       11.07000000       2.13042000      10.12679544      -0.15814284       0.09157271      -0.00930014
C       -2.46000000       4.26085000      10.12516286      -0.00274817      -0.00555410      -0.00091542
C       -3.69000000       6.39127000      10.12516229      -0.00360009      -0.00399656      -0.00090828
C       -4.92000000       8.52169000      10.12679535       0.00222206      -0.18641658      -0.00927439
C        2.46000000       0.00000000      10.12248529       0.18128543      -0.10454077      -0.02123165
C        1.23000000       2.13042000      10.12248145       0.00232384       0.20583435      -0.02125350
C        0.00000000       4.26085000      10.12463071       0.02391247       0.00422114       0.00863480
C       -1.23000000       6.39127000      10.12520653      -0.01178557      -0.00973781       0.00150417
C       -2.46000000       8.52169000      10.12462987       0.01819388       0.01447852       0.00863948
C        4.92000000       0.00000000      10.12462986      -0.00343874      -0.02287495       0.00864012
C        3.69000000       2.13042000      10.12679530       0.16254411       0.09154173      -0.00926984
C        2.46000000       4.26085000      10.12463056      -0.01936442       0.00420258       0.00863883
C        1.23000000       6.39127000      10.12510012       0.00231043       0.00523822       0.00248708
C        0.00000000       8.52169000      10.12509999       0.00823345      -0.00475308       0.00249186
C        7.38000000       0.00000000      10.12520652       0.00231227       0.01506309       0.00150416
C        6.15000000       2.13042000      10.12516229       0.00142990       0.00525017      -0.00090837
C        4.92000000       4.26085000      10.12516242       0.00733159      -0.00556449      -0.00091041
C        3.69000000       6.39127000      10.12520651       0.01639689      -0.00973431       0.00150285
C        2.46000000       8.52169000      10.12510011      -0.00361331      -0.00475359       0.00248680
C        9.84000000       0.00000000      10.12463073       0.00802414      -0.02286175       0.00863481
C        8.61000000       2.13042000      10.12516290       0.00315477       0.00526212      -0.00091549
C        7.38000000       4.26085000      10.12494961       0.00231369      -0.00166111       0.00242703
C        6.15000000       6.39127000      10.12516247       0.00820307      -0.00399561      -0.00091038
C        4.92000000       8.52169000      10.12463059      -0.01360215       0.01450765       0.00863820
C        0.00006000       1.42025000      10.12248075      -0.18132788       0.10447684      -0.02125447
C       -1.22994000       3.55067000      10.12462975      -0.01819395      -0.01447458       0.00864137
C       -2.45994000       5.68109000      10.12520654       0.01178255       0.00974213       0.00150397
C       -3.68994000       7.81151000      10.12463082      -0.02390744      -0.00422087       0.00863763
C       -4.91994000       9.94194000      10.12248333      -0.00230334      -0.20574136      -0.02124471
C        2.46006000       1.42025000      10.12248395       0.17685936       0.10455335      -0.02124397
C        1.23006000       3.55067000      10.12679531      -0.00223121       0.18644511      -0.00928490
C        0.00006000       5.68109000      10.12516233       0.00359620       0.00399389      -0.00090837
C       -1.22994000       7.81151000      10.12516284       0.00274041       0.00555108      -0.00091658
C       -2.45994000       9.94194000      10.12679551       0.15811622      -0.09148417      -0.00927516
C        4.92006000       1.42025000      10.12463086      -0.00801598       0.02276307       0.00863666
C        3.69006000       3.55067000      10.12463062       0.01360905      -0.01448492       0.00863422
C        2.46006000       5.68109000      10.12516246      -0.00820258       0.00400273      -0.00090940
C        1.23006000       7.81151000      10.12494961      -0.00231038       0.00166019       0.00242702
C        0.00006000       9.94194000      10.12516286      -0.00315866      -0.00518204      -0.00091666
C        7.38006000       1.42025000      10.12520653      -0.00231234      -0.01515592       0.00150412
C        6.15006000       3.55067000      10.12510010       0.00361388       0.00476606       0.00248661
C        4.92006000       5.68109000      10.12520649      -0.01639792       0.00973635       0.00150306
C        3.69006000       7.81151000      10.12516243      -0.00733569       0.00556241      -0.00090933
C        2.46006000       9.94194000      10.12516231      -0.00143131      -0.00517392      -0.00090837
C        9.84006000       1.42025000      10.12462973       0.00345279       0.02278778       0.00864114
C        8.61006000       3.55067000      10.12510001      -0.00822911       0.00477061       0.00249224
C        7.38006000       5.68109000      10.12510012      -0.00230331      -0.00523350       0.00248691
C        6.15006000       7.81151000      10.12463056       0.01936774      -0.00420844       0.00863495
C        4.92006000       9.94194000      10.12679529      -0.16256452      -0.09147194      -0.00928523
Li       1.22996016       0.71015534      12.00000000       0.00012179      -0.00005598       0.00000000
101
Lattice="12.300000191 0.0 0.0 -6.150000095 10.652112632 0.0 0.0 0.0 24.0" Properties=species:S:1:pos:R:3:forces:R:3 energy=-931.0542685820076 stress="-0.06824103823807627 -1.5346482605103062e-05 -6.911413526777009e-18 -1.5346482605103062e-05 -0.06825930578869759 2.2990874326045297e-18 -6.911413526777009e-18 2.2990874326045297e-18 -4.827514832638121e-05" free_energy=-931.0542685820076 pbc="T T T"
C        0.00000000       0.00000000      13.88375336      -0.17646912      -0.10443733       0.01038243
C       11.07000000       2.13042000      13.87459304      -0.15827761       0.09165069      -0.00277087
C       -2.46000000       4.26085000      13.87498022      -0.00282821      -0.00552528      -0.01899975
C       -3.69000000       6.39127000      13.87497934      -0.00361588      -0.00408019      -0.01897113
C       -4.92000000       8.52169000      13.87458703       0.00222370      -0.18658355      -0.00273937
C        2.46000000       0.00000000      13.88374139       0.18089422      -0.10431583       0.01043676
C        1.23000000       2.13042000      13.88375222       0.00231385       0.20536788       0.01038977
C        0.00000000       4.26085000      13.87348034       0.02366207       0.00492670       0.01294122
C       -1.23000000       6.39127000      13.87433922      -0.01155632      -0.00960608       0.00269378
C       -2.46000000       8.52169000      13.87348045       0.01867961       0.01391340       0.01294997
C        4.92000000       0.00000000      13.87348031      -0.00270632      -0.02301323       0.01295198
C        3.69000000       2.13042000      13.87458601       0.16269072       0.09162464      -0.00273087
C        2.46000000       4.26085000      13.87347960      -0.01911417       0.00491039       0.01295210
C        1.23000000       6.39127000      13.87426036       0.00230982       0.00533604       0.00914314
C        0.00000000       8.52169000      13.87425941       0.00831830      -0.00480214       0.00916673
C        7.38000000       0.00000000      13.87433925       0.00231291       0.01479871       0.00269366
C        6.15000000       2.13042000      13.87497937       0.00149454       0.00530580      -0.01896935
C        4.92000000       4.26085000      13.87497966       0.00741348      -0.00553551      -0.01896783
C        3.69000000       6.39127000      13.87433957       0.01616813      -0.00960212       0.00268414
C        2.46000000       8.52169000      13.87426045      -0.00369829      -0.00480203       0.00914260
C        9.84000000       0.00000000      13.87348031       0.00728726      -0.02299759       0.01294140
C        8.61000000       2.13042000      13.87498018       0.00308962       0.00531713      -0.01899947
C        7.38000000       4.26085000      13.87449477       0.00231319      -0.00166090      -0.00212707
C        6.15000000       6.39127000      13.87497959       0.00821886      -0.00408106      -0.01896933
C        4.92000000       8.52169000      13.87347970      -0.01409004       0.01393646       0.01295028
C        0.00006000       1.42025000      13.88375346      -0.18091530       0.10423818       0.01040841
C       -1.22994000       3.55067000      13.87348017      -0.01868130      -0.01390309       0.01298203
C       -2.45994000       5.68109000      13.87433926       0.01155425       0.00960916       0.00269113
C       -3.68994000       7.81151000      13.87347950      -0.02366013      -0.00492690       0.01293575
C       -4.91994000       9.94194000      13.88374737      -0.00230541      -0.20528556       0.01039900
C        2.46006000       1.42025000      13.88374629       0.17646558       0.10432796       0.01039581
C        1.23006000       3.55067000      13.87458960      -0.00223043       0.18660441      -0.00274562
C        0.00006000       5.68109000      13.87497932       0.00361154       0.00407889      -0.01897229
C       -1.22994000       7.81151000      13.87498052       0.00282190       0.00552259      -0.01899331
C       -2.45994000       9.94194000      13.87458698       0.15826716      -0.09157120      -0.00275849
C        4.92006000       1.42025000      13.87347966      -0.00728139       0.02290193       0.01292798
C        3.69006000       3.55067000      13.87348060       0.01409391      -0.01391759       0.01292426
C        2.46006000       5.68109000      13.87497936      -0.00821796       0.00408604      -0.01897312
C        1.23006000       7.81151000      13.87449477      -0.00231087       0.00166042      -0.00212702
C        0.00006000       9.94194000      13.87498051      -0.00309339      -0.00523830      -0.01899364
C        7.38006000       1.42025000      13.87433923      -0.00231125      -0.01489169       0.00269172
C        6.15006000       3.55067000      13.87426050       0.00369839       0.00481559       0.00914211
C        4.92006000       5.68109000      13.87433954      -0.01616876       0.00960414       0.00268842
C        3.69006000       7.81151000      13.87497940      -0.00741548       0.00553398      -0.01897296
C        2.46006000       9.94194000      13.87497934      -0.00149715      -0.00522954      -0.01897245
C        9.84006000       1.42025000      13.87348025       0.00271433       0.02292385       0.01298152
C        8.61006000       3.55067000      13.87425930      -0.00831383       0.00481944       0.00916699
C        7.38006000       5.68109000      13.87426041      -0.00230403      -0.00533142       0.00914297
C        6.15006000       7.81151000      13.87348052       0.01911844      -0.00491218       0.01293152
C        4.92006000       9.94194000      13.87458971      -0.16270077      -0.09155138      -0.00274044
C        0.00000000       0.00000000      10.11624664      -0.17646912      -0.10443733      -0.01038243
C       11.07000000       2.13042000      10.12540696      -0.15827761       0.09165069       0.00277087
C       -2.46000000       4.26085000      10.12501978      -0.00282821      -0.00552528       0.01899975
C       -3.69000000       6.39127000      10.12502066      -0.00361588      -0.00408019       0.01897113
C       -4.92000000       8.52169000      10.12541297       0.00222370      -0.18658355       0.00273937
C        2.46000000       0.00000000      10.11625861       0.18089422      -0.10431583      -0.01043676
C        1.23000000       2.13042000      10.11624778       0.00231385       0.20536788      -0.01038977
C        0.00000000       4.26085000      10.12651966       0.02366207       0.00492670      -0.01294122
C       -1.23000000       6.39127000      10.12566078      -0.01155632      -0.00960608      -0.00269378
C       -2.46000000       8.52169000      10.12651955       0.01867961       0.01391340      -0.01294997
C        4.92000000       0.00000000      10.12651969      -0.00270632      -0.02301323      -0.01295198
C        3.69000000       2.13042000      10.12541399       0.16269072       0.09162464       0.00273087
C        2.46000000       4.26085000      10.12652040      -0.01911417       0.00491039      -0.01295210
C        1.23000000       6.39127000      10.12573964       0.00230982       0.00533604      -0.00914314
C        0.00000000       8.52169000      10.12574059       0.00831830      -0.00480214      -0.00916673
C        7.38000000       0.00000000      10.12566075       0.00231291       0.01479871      -0.00269366
C        6.15000000       2.13042000      10.12502063       0.00149454       0.00530580       0.01896935
C        4.92000000       4.26085000      10.12502034       0.00741348      -0.00553551       0.01896783
C        3.69000000       6.39127000      10.12566043       0.01616813      -0.00960212      -0.00268414
C        2.46000000       8.52169000      10.12573955      -0.00369829      -0.00480203      -0.00914260
C        9.84000000       0.00000000      10.12651969       0.00728726      -0.02299759      -0.01294140
C        8.61000000       2.13042000      10.12501982       0.00308962       0.00531713       0.01899947