109
Lattice="12.782400131 0.0 0.0 -6.391200066 11.069883235 0.0 0.0 0.0 24.0" Properties=species:S:1:pos:R:3:forces:R:3 energy=-1005.3744873916435 stress="-0.06813130736728831 3.1375896545624106e-06 3.9686669899989796e-18 3.1375896545624106e-06 -0.06813513129225515 -4.4661302052076165e-18 3.9686669899989796e-18 -4.4661302052076165e-18 -7.95059771307775e-05" free_energy=-1005.3744873916435 pbc="T T T"
C        0.00000000       0.00000000      13.87500000      -0.09207366      -0.15978725      -0.02512133
C       -2.13038000       3.68992000      13.87500000      -0.00493405      -0.02046499       0.00519534
C        8.52158000       7.37996000      13.87500000      -0.00895942      -0.01237029      -0.00144164
C        4.26076000       0.00000000      13.87500000      -0.01711047      -0.01574572       0.00519382
C        2.13038000       3.68992000      13.87500000       0.10430300       0.18221377       0.03525890
C       -0.00006000       7.37996000      13.87500000      -0.00762885      -0.00313839      -0.00226660
C        8.52164000       0.00000000      13.87500000      -0.00580915      -0.01356075      -0.00144246
C        6.39126000       3.68992000      13.87500000       0.00162361      -0.00550977      -0.00226917
C        4.26082000       7.37996000      13.87500000       0.00388689       0.00642093      -0.00106988
C       -0.00000000       2.45995000      13.87500000      -0.20726479      -0.00046393       0.03521150
C       -2.13044000       6.14998000      13.87500000       0.00607432       0.00492012      -0.00226371
C       -4.26082000       9.83991000      13.87500000       0.02230195       0.00666664       0.00518909
C        4.26076000       2.45995000      13.87500000       0.18612039       0.00018754      -0.02512742
C        2.13031000       6.14998000      13.87500000       0.02504844      -0.00646861       0.00520432
C       -0.00006000       9.83991000      13.87500000       0.01596484       0.00231406      -0.00143845
C        8.52164000       2.45995000      13.87500000      -0.00851334      -0.00058704      -0.00107385
C        6.39120000       6.14998000      13.87500000       0.01503589      -0.00208948      -0.00143905
C        4.26082000       9.83991000      13.87500000       0.00609086      -0.00542016      -0.00227202
C        2.13038000       1.22997000      13.87500000       0.10376484      -0.17939640       0.03519355
C        0.00000000       4.91990000      13.87500000      -0.09387263       0.16244677      -0.02512619
C       -2.13044000       8.60993000      13.87500000       0.00424005      -0.00748111      -0.00107288
C        6.39126000       1.22997000      13.87500000      -0.00185469       0.00792555      -0.00226897
C        4.26089000       4.91990000      13.87500000      -0.02250565       0.01872415       0.00519637
C        2.13044000       8.60993000      13.87500000      -0.01198104       0.01158951      -0.00143671
C       10.65202000       1.22997000      13.87500000      -0.00519650       0.02300148       0.00518959
C        8.52164000       4.91990000      13.87500000      -0.00710395       0.01599714      -0.00143753
C        6.39120000       8.60993000      13.87500000      -0.00722719       0.00260440      -0.00227108
C       11.36215000       2.45995000      13.87500000      -0.18430521       0.00056073      -0.02512234
C       -3.55070000       6.14998000      13.87500000      -0.01420190      -0.00377396      -0.00143952
C       -5.68107000       9.83991000      13.87500000      -0.02253410       0.00669461       0.00518934
C        2.84050000       2.45995000      13.87500000       0.20848059       0.00079659       0.03524484
C        0.71006000       6.14998000      13.87500000      -0.02214839      -0.00854271       0.00518703
C       -1.42032000       9.83991000      13.87500000      -0.00514554      -0.00498558      -0.00227155
C        7.10139000       2.45995000      13.87500000       0.00853235       0.00025141      -0.00106739
C        4.97095000       6.14998000      13.87500000      -0.00645861       0.00294174      -0.00226582
C        2.84057000       9.83991000      13.87500000      -0.01473498       0.00137831      -0.00143912
C        0.71013000       1.22997000      13.87500000      -0.10393192      -0.17939146       0.03518438
C       -1.42032000       4.92001000      13.87500000       0.01903343       0.01270608       0.00518534
C       -3.55070000       8.60993000      13.87500000       0.00780683       0.00262935      -0.00227167
C        4.97088000       1.22997000      13.87500000       0.00879216       0.02304515       0.00519368
C        2.84044000       4.92001000      13.87500000       0.09750425       0.15679818      -0.02513597
C        0.71006000       8.60993000      13.87500000       0.01233381       0.01154628      -0.00143786
C        9.23177000       1.22997000      13.87500000      -0.00178096       0.00789684      -0.00227169
C        7.10133000       4.92001000      13.87500000       0.00679080       0.00999996      -0.00143778
C        4.97095000       8.60993000      13.87500000      -0.00462803      -0.00750034      -0.00107337
C        2.84050000       0.00000000      13.87500000       0.09248517      -0.15961862      -0.02512195
C        0.71013000       3.68992000      13.87500000      -0.10458317       0.18050626       0.03528831
C       -1.42032000       7.37996000      13.87500000      -0.00421823       0.00782865      -0.00107302
C        7.10139000       0.00000000      13.87500000       0.00351794      -0.01393011      -0.00143741
C        4.97101000       3.68992000      13.87500000       0.00276026      -0.02281181       0.00519537
C        2.84057000       7.37996000      13.87500000       0.00515611      -0.00305521      -0.00227240
C       11.36215000       0.00000000      13.87500000       0.01688303      -0.01597102       0.00518946
C        9.23177000       3.68992000      13.87500000      -0.00220875      -0.00708666      -0.00226932
C        7.10133000       7.37996000      13.87500000       0.00838386      -0.01137335      -0.00144269
C        0.00000000       0.00000000      10.12500000      -0.09207366      -0.15978725       0.02512133
C       -2.13038000       3.68992000      10.12500000      -0.00493405      -0.02046499      -0.00519534
C        8.52158000       7.37996000      10.12500000      -0.00895942      -0.01237029       0.00144164
C        4.26076000       0.00000000      10.12500000      -0.01711047      -0.01574572      -0.00519382
C        2.13038000       3.68992000      10.12500000       0.10430300       0.18221377      -0.03525890
C       -0.00006000       7.37996000      10.12500000      -0.00762885      -0.00313839       0.00226660
C        8.52164000       0.00000000      10.12500000      -0.00580915      -0.01356075       0.00144246
C        6.39126000       3.68992000      10.12500000       0.00162361      -0.00550977       0.00226917
C        4.26082000       7.37996000      10.12500000       0.00388689       0.00642093       0.00106988
C       -0.00000000       2.45995000      10.12500000      -0.20726479      -0.00046393      -0.03521150
C       -2.13044000       6.14998000      10.12500000       0.00607432       0.00492012       0.00226371
C       -4.26082000       9.83991000      10.12500000       0.02230195       0.00666664      -0.00518909
C        4.26076000       2.45995000      10.12500000       0.18612039       0.00018754       0.02512742
C        2.13031000       6.14998000      10.12500000       0.02504844      -0.00646861      -0.00520432
C       -0.00006000       9.83991000      10.12500000       0.01596484       0.00231406       0.00143845
C        8.52164000       2.45995000      10.12500000      -0.00851334      -0.00058704       0.00107385
C        6.39120000       6.14998000      10.12500000       0.01503589      -0.00208948       0.00143905
C        4.26082000       9.83991000      10.12500000       0.00609086      -0.00542016       0.00227202
C        2.13038000       1.22997000      10.12500000       0.10376484      -0.17939640      -0.03519355
C        0.00000000       4.91990000      10.12500000      -0.09387263       0.16244677       0.02512619
C       -2.13044000       8.60993000      10.12500000       0.00424005      -0.00748111       0.00107288
C        6.39126000       1.22997000      10.12500000      -0.00185469       0.00792555       0.00226897
C        4.26089000       4.91990000      10.12500000      -0.02250565       0.01872415      -0.00519637
C        2.13044000       8.60993000      10.12500000      -0.01198104       0.01158951       0.00143671
C       10.65202000       1.22997000      10.12500000      -0.00519650       0.02300148      -0.00518959
C        8.52164000       4.91990000      10.12500000      -0.00710395       0.01599714       0.00143753
C        6.39120000       8.60993000      10.12500000      -0.00722719       0.00260440       0.00227108
C       11.36215000       2.45995000      10.12500000      -0.18430521       0.00056073       0.02512234
C       -3.55070000       6.14998000      10.12500000      -0.01420190      -0.00377396       0.00143952
C       -5.68107000       9.83991000      10.12500000      -0.02253410       0.00669461      -0.00518934
C        2.84050000       2.45995000      10.12500000       0.20848059       0.00079659      -0.03524484
C        0.71006000       6.14998000      10.12500000      -0.02214839      -0.00854271      -0.00518703
C       -1.42032000       9.83991000      10.12500000      -0.00514554      -0.00498558       0.00227155
C        7.10139000       2.45995000      10.12500000       0.00853235       0.00025141       0.00106739
C        4.97095000       6.14998000      10.12500000      -0.00645861       0.00294174       0.00226582
C        2.84057000       9.83991000      10.12500000      -0.01473498       0.00137831       0.00143912
C        0.71013000       1.22997000      10.12500000      -0.10393192      -0.17939146      -0.03518438
C       -1.42032000       4.92001000      10.12500000       0.01903343       0.01270608      -0.00518534
C       -3.55070000       8.60993000      10.12500000       0.00780683       0.00262935       0.00227167
C        4.97088000       1.22997000      10.12500000       0.00879216       0.02304515      -0.00519368
C        2.84044000       4.92001000      10.12500000       0.09750425       0.15679818       0.02513597
C        0.71006000       8.60993000      10.12500000       0.01233381       0.01154628       0.00143786
C        9.23177000       1.22997000      10.12500000      -0.00178096       0.00789684       0.00227169
C        7.10133000       4.92001000      10.12500000       0.00679080       0.00999996       0.00143778
C        4.97095000       8.60993000      10.12500000      -0.00462803      -0.00750034       0.00107337
C        2.84050000       0.00000000      10.12500000       0.09248517      -0.15961862       0.02512195
C        0.71013000       3.68992000      10.12500000      -0.10458317       0.18050626      -0.03528831
C       -1.42032000       7.37996000      10.12500000      -0.00421823       0.00782865       0.00107302
C        7.10139000       0.00000000      10.12500000       0.00351794      -0.01393011       0.00143741
C        4.97101000       3.68992000      10.12500000       0.00276026      -0.02281181      -0.00519537
C        2.84057000       7.37996000      10.12500000       0.00515611      -0.00305521       0.00227240
C       11.36215000       0.00000000      10.12500000       0.01688303      -0.01597102      -0.00518946
C        9.23177000       3.68992000      10.12500000      -0.00220875      -0.00708666       0.00226932
C        7.10133000       7.37996000      10.12500000       0.00838386      -0.01137335       0.00144269
Li       1.42025000       2.46002000      12.00000000      -0.00000101      -0.00013494       0.00000000
109
Lattice="12.782400131 0.0 0.0 -6.391200066 11.069883235 0.0 0.0 0.0 24.0" Properties=species:S:1:pos:R:3:forces:R:3 energy=-1005.3755021004445 stress="-0.06813889120026298 3.136750765699795e-06 7.382815204531656e-19 3.136750765699795e-06 -0.0681427144755769 -1.8474929091407354e-18 7.382815204531656e-19 -1.8474929091407354e-18 -6.917951583232638e-05" free_energy=-1005.3755021004445 pbc="T T T"
C        0.00000000       0.00000000      13.87320562      -0.09235070      -0.16026752       0.00921445
C       -2.13038000       3.68992000      13.87537110      -0.00518756      -0.02017494      -0.00863310
C        8.52158000       7.37996000      13.87489703      -0.00893991      -0.01239484      -0.00130455
C        4.26076000       0.00000000      13.87537099      -0.01673329      -0.01582015      -0.00863199
C        2.13038000       3.68992000      13.87751849       0.10401442       0.18171505       0.02125503
C       -0.00006000       7.37996000      13.87483810      -0.00763842      -0.00302238       0.00181088
C        8.52164000       0.00000000      13.87489697      -0.00584016      -0.01355610      -0.00130205
C        6.39126000       3.68992000      13.87483792       0.00172905      -0.00546023       0.00181796
C        4.26082000       7.37996000      13.87492358       0.00391782       0.00647472      -0.00379981
C        0.00000000       2.45995000      13.87751511      -0.20669202      -0.00046217       0.02124252
C       -2.13044000       6.14998000      13.87483831       0.00597880       0.00498610       0.00180960
C       -4.26082000       9.83991000      13.87537065       0.02217822       0.00630243      -0.00863752
C        4.26076000       2.45995000      13.87320518       0.18667172       0.00018704       0.00924520
C        2.13031000       6.14998000      13.87537174       0.02492390      -0.00610307      -0.00864172
C       -0.00006000       9.83991000      13.87489725       0.01597623       0.00228483      -0.00130143
C        8.52164000       2.45995000      13.87492330      -0.00857530      -0.00058678      -0.00379838
C        6.39120000       6.14998000      13.87489721       0.01504719      -0.00206020      -0.00130107
C        4.26082000       9.83991000      13.87483771       0.00599532      -0.00548675       0.00181358
C        2.13038000       1.22997000      13.87751383       0.10348046      -0.17890249       0.02122863
C        0.00000000       4.91990000      13.87320527      -0.09414700       0.16292153       0.00925596
C       -2.13044000       8.60993000      13.87492337       0.00427110      -0.00753464      -0.00380112
C        6.39126000       1.22997000      13.87483793      -0.00174973       0.00787598       0.00181764
C        4.26089000       4.91990000      13.87537117      -0.02212621       0.01879953      -0.00864675
C        2.13044000       8.60993000      13.87489738      -0.01196124       0.01161389      -0.00130243
C       10.65202000       1.22997000      13.87537069      -0.00545079       0.02271175      -0.00863918
C        8.52164000       4.91990000      13.87489732      -0.00713497       0.01599223      -0.00130183
C        6.39120000       8.60993000      13.87483778      -0.00723695       0.00248859       0.00181256
C       11.36215000       2.45995000      13.87320555      -0.18485812       0.00056031       0.00922763
C       -3.55070000       6.14998000      13.87489718      -0.01421324      -0.00374464      -0.00129950
C       -5.68107000       9.83991000      13.87537067      -0.02241040       0.00633062      -0.00863521
C        2.84050000       2.45995000      13.87751749       0.20790689       0.00079791       0.02123131
C        0.71006000       6.14998000      13.87537050      -0.02202373      -0.00817632      -0.00863368
C       -1.42032000       9.83991000      13.87483775      -0.00504998      -0.00505222       0.00181579
C        7.10139000       2.45995000      13.87492376       0.00859436       0.00025165      -0.00379915
C        4.97095000       6.14998000      13.87483816      -0.00636301       0.00300787       0.00181792
C        2.84057000       9.83991000      13.87489721      -0.01474638       0.00134909      -0.00130362
C        0.71013000       1.22997000      13.87751317      -0.10364741      -0.17889798       0.02121592
C       -1.42032000       4.92001000      13.87537038       0.01865373       0.01278174      -0.00864017
C       -3.55070000       8.60993000      13.87483774       0.00781656       0.00251354       0.00181272
C        4.97088000       1.22997000      13.87537098       0.00904662       0.02275504      -0.00864079
C        2.84044000       4.92001000      13.87320457       0.09777895       0.15727468       0.00926252
C        0.71006000       8.60993000      13.87489730       0.01231398       0.01157067      -0.00129931
C        9.23177000       1.22997000      13.87483774      -0.00188588       0.00784722       0.00181117
C        7.10133000       4.92001000      13.87489730       0.00682185       0.00999507      -0.00130148
C        4.97095000       8.60993000      13.87492333      -0.00465904      -0.00755386      -0.00380013
C        2.84050000       0.00000000      13.87320557       0.09276215      -0.16009882       0.00922065
C        0.71013000       3.68992000      13.87752059      -0.10429418       0.18000709       0.02124397
C       -1.42032000       7.37996000      13.87492336      -0.00424916       0.00788250      -0.00379607
C        7.10139000       0.00000000      13.87489733       0.00354898      -0.01392544      -0.00130262
C        4.97101000       3.68992000      13.87537110       0.00301425      -0.02252150      -0.00863670
C        2.84057000       7.37996000      13.87483769       0.00516574      -0.00293916       0.00182105
C       11.36215000       0.00000000      13.87537068       0.01650596      -0.01604563      -0.00863439
C        9.23177000       3.68992000      13.87483791      -0.00231425      -0.00703715       0.00181672
C        7.10133000       7.37996000      13.87489695       0.00836437      -0.01139789      -0.00130415
C        0.00000000       0.00000000      10.12679438      -0.09235070      -0.16026752      -0.00921445
C       -2.13038000       3.68992000      10.12462890      -0.00518756      -0.02017494       0.00863310
C        8.52158000       7.37996000      10.12510297      -0.00893991      -0.01239484       0.00130455
C        4.26076000       0.00000000      10.12462901      -0.01673329      -0.01582015       0.00863199
C        2.13038000       3.68992000      10.12248151       0.10401442       0.18171505      -0.02125503
C       -0.00006000       7.37996000      10.12516190      -0.00763842      -0.00302238      -0.00181088
C        8.52164000       0.00000000      10.12510303      -0.00584016      -0.01355610       0.00130205
C        6.39126000       3.68992000      10.12516208       0.00172905      -0.00546023      -0.00181796
C        4.26082000       7.37996000      10.12507642       0.00391782       0.00647472       0.00379981
C        0.00000000       2.45995000      10.12248489      -0.20669202      -0.00046217      -0.02124252
C       -2.13044000       6.14998000      10.12516169       0.00597880       0.00498610      -0.00180960
C       -4.26082000       9.83991000      10.12462935       0.02217822       0.00630243       0.00863752
C        4.26076000       2.45995000      10.12679482       0.18667172       0.00018704      -0.00924520
C        2.13031000       6.14998000      10.12462826       0.02492390      -0.00610307       0.00864172
C       -0.00006000       9.83991000      10.12510275       0.01597623       0.00228483       0.00130143
C        8.52164000       2.45995000      10.12507670      -0.00857530      -0.00058678       0.00379838
C        6.39120000       6.14998000      10.12510279       0.01504719      -0.00206020       0.00130107
C        4.26082000       9.83991000      10.12516229       0.00599532      -0.00548675      -0.00181358
C        2.13038000       1.22997000      10.12248617       0.10348046      -0.17890249      -0.02122863
C        0.00000000       4.91990000      10.12679473      -0.09414700       0.16292153      -0.00925596
C       -2.13044000       8.60993000      10.12507663       0.00427110      -0.00753464       0.00380112
C        6.39126000       1.22997000      10.12516207      -0.00174973       0.00787598      -0.00181764
C        4.26089000       4.91990000      10.12462883      -0.02212621       0.01879953       0.00864675
C        2.13044000       8.60993000      10.12510262      -0.01196124       0.01161389       0.00130243
C       10.65202000       1.22997000      10.12462931      -0.00545079       0.02271175       0.00863918
C        8.52164000       4.91990000      10.12510268      -0.00713497       0.01599223       0.00130183
C        6.39120000       8.60993000      10.12516222      -0.00723695       0.00248859      -0.00181256
C       11.36215000       2.45995000      10.12679445      -0.18485812       0.00056031      -0.00922763
C       -3.55070000       6.14998000      10.12510282      -0.01421324      -0.00374464       0.00129950
C       -5.68107000       9.83991000      10.12462933      -0.02241040       0.00633062       0.00863521
C        2.84050000       2.45995000      10.12248251       0.20790689       0.00079791      -0.02123131
C        0.71006000       6.14998000      10.12462950      -0.02202373      -0.00817632       0.00863368
C       -1.42032000       9.83991000      10.12516225      -0.00504998      -0.00505222      -0.00181579
C        7.10139000       2.45995000      10.12507624       0.00859436       0.00025165       0.00379915
C        4.97095000       6.14998000      10.12516184      -0.00636301       0.00300787      -0.00181792
C        2.84057000       9.83991000      10.12510279      -0.01474638       0.00134909       0.00130362
C        0.71013000       1.22997000      10.12248683      -0.10364741      -0.17889798      -0.02121592
C       -1.42032000       4.92001000      10.12462962       0.01865373       0.01278174       0.00864017
C       -3.55070000       8.60993000      10.12516226       0.00781656       0.00251354      -0.00181272
C        4.97088000       1.22997000      10.12462902       0.00904662       0.02275504       0.00864079
C        2.84044000       4.92001000      10.12679543       0.09777895       0.15727468      -0.00926252
C        0.71006000       8.60993000      10.12510270       0.01231398       0.01157067       0.00129931
C        9.23177000       1.22997000      10.12516226      -0.00188588       0.00784722      -0.00181117
C        7.10133000       4.92001000      10.12510270       0.00682185       0.00999507       0.00130148
C        4.97095000       8.60993000      10.12507667      -0.00465904      -0.00755386       0.00380013
C        2.84050000       0.00000000      10.12679443       0.09276215      -0.16009882      -0.00922065
C        0.71013000       3.68992000      10.12247941      -0.10429418       0.18000709      -0.02124397
C       -1.42032000       7.37996000      10.12507664      -0.00424916       0.00788250       0.00379607
C        7.10139000       0.00000000      10.12510267       0.00354898      -0.01392544       0.00130262
C        4.97101000       3.68992000      10.12462890       0.00301425      -0.02252150       0.00863670
C        2.84057000       7.37996000      10.12516231       0.00516574      -0.00293916      -0.00182105
C       11.36215000       0.00000000      10.12462932       0.01650596      -0.01604563       0.00863439
C        9.23177000       3.68992000      10.12516209      -0.00231425      -0.00703715      -0.00181672
C        7.10133000       7.37996000      10.12510305       0.00836437      -0.01139789       0.00130415
Li       1.42024993       2.46001036      12.00000000       0.00000081      -0.00011164       0.00000000
109
Lattice="12.782400131 0.0 0.0 -6.391200066 11.069883235 0.0 0.0 0.0 24.0" Properties=species:S:1:pos:R:3:forces:R:3 energy=-1005.3764829592542 stress="-0.06814837515677084 3.1364555968452955e-06 -5.555048247153979e-18 3.1364555968452955e-06 -0.06815219892605776 3.703317475953852e-18 -5.555048247153979e-18 3.703317475953852e-18 -4.7940707930496436e-05" free_energy=-1005.3764829592542 pbc="T T T"
C        0.00000000       0.00000000      13.87438008      -0.09242945      -0.16040498      -0.00115627
C       -2.13038000       3.68992000      13.87370216      -0.00584748      -0.01993478       0.01174986
C        8.52158000       7.37996000      13.87457580      -0.00879473      -0.01235637       0.00097257
C        4.26076000       0.00000000      13.87370224      -0.01619776      -0.01627166       0.01174064
C        2.13038000       3.68992000      13.88311704       0.10378905       0.18132920       0.01109590
C       -0.00006000       7.37996000      13.87515170      -0.00768771      -0.00296821      -0.01928361
C        8.52164000       0.00000000      13.87457625      -0.00587937      -0.01341100       0.00096347
C        6.39126000       3.68992000      13.87515293       0.00180115      -0.00547623      -0.01929947
C        4.26082000       7.37996000      13.87408495       0.00393605       0.00650696       0.01039115
C        0.00000000       2.45995000      13.88310953      -0.20625344      -0.00045639       0.01108603
C       -2.13044000       6.14998000      13.87515172       0.00595682       0.00505515      -0.01928800
C       -4.26082000       9.83991000      13.87370058       0.02230226       0.00561213       0.01175292
C        4.26076000       2.45995000      13.87438598       0.18682212       0.00018625      -0.00118768
C        2.13031000       6.14998000      13.87370125       0.02504598      -0.00540915       0.01181171
C       -0.00006000       9.83991000      13.87457679       0.01586998       0.00217820       0.00097130
C        8.52164000       2.45995000      13.87408485      -0.00861209      -0.00058611       0.01037664
C        6.39120000       6.14998000      13.87457681       0.01494059      -0.00195340       0.00096768
C        4.26082000       9.83991000      13.87515171       0.00597318      -0.00555737      -0.01928688
C        2.13038000       1.22997000      13.88310475       0.10326776      -0.17852873       0.01109666
C        0.00000000       4.91990000      13.87438838      -0.09421922       0.16304560      -0.00118707
C       -2.13044000       8.60993000      13.87408437       0.00428969      -0.00756623       0.01038463
C        6.39126000       1.22997000      13.87515289      -0.00167914       0.00789177      -0.01930805
C        4.26089000       4.91990000      13.87369937      -0.02158685       0.01925344       0.01182468
C        2.13044000       8.60993000      13.87457676      -0.01181518       0.01157477       0.00097516
C       10.65202000       1.22997000      13.87370028      -0.00611253       0.02247270       0.01175959
C        8.52164000       4.91990000      13.87457680      -0.00717414       0.01584644       0.00097269
C        6.39120000       8.60993000      13.87515159      -0.00728661       0.00243473      -0.01928783
C       11.36215000       2.45995000      13.87438277      -0.18500822       0.00055919      -0.00114362
C       -3.55070000       6.14998000      13.87457709      -0.01410678      -0.00363777       0.00095608
C       -5.68107000       9.83991000      13.87370110      -0.02253445       0.00564084       0.01174083
C        2.84050000       2.45995000      13.88311057       0.20746873       0.00080355       0.01113460
C        0.71006000       6.14998000      13.87370118      -0.02214548      -0.00748268       0.01178145
C       -1.42032000       9.83991000      13.87515223      -0.00502791      -0.00512284      -0.01928915
C        7.10139000       2.45995000      13.87408535       0.00863125       0.00025226       0.01038577
C        4.97095000       6.14998000      13.87515327      -0.00634099       0.00307672      -0.01931870
C        2.84057000       9.83991000      13.87457626      -0.01464011       0.00124259       0.00096977
C        0.71013000       1.22997000      13.88310112      -0.10343460      -0.17852527       0.01114137
C       -1.42032000       4.92001000      13.87369963       0.01811364       0.01323491       0.01180022
C       -3.55070000       8.60993000      13.87515157       0.00786618       0.00245970      -0.01929365
C        4.97088000       1.22997000      13.87370036       0.00970843       0.02251583       0.01179765
C        2.84044000       4.92001000      13.87438877       0.09785102       0.15739734      -0.00119574
C        0.71006000       8.60993000      13.87457730       0.01216789       0.01153160       0.00095687
C        9.23177000       1.22997000      13.87515123      -0.00195660       0.00786289      -0.01928888
C        7.10133000       4.92001000      13.87457685       0.00686104       0.00984932       0.00097050
C        4.97095000       8.60993000      13.87408453      -0.00467759      -0.00758535       0.01037539
C        2.84050000       0.00000000      13.87438133       0.09283996      -0.16023445      -0.00114914
C        0.71013000       3.68992000      13.88311771      -0.10406841       0.17962188       0.01112169
C       -1.42032000       7.37996000      13.87408542      -0.00426743       0.00791482       0.01036416
C        7.10139000       0.00000000      13.87457665       0.00358827      -0.01378025       0.00097303
C        4.97101000       3.68992000      13.87370140       0.00367385      -0.02228173       0.01177534
C        2.84057000       7.37996000      13.87515326       0.00521490      -0.00288497      -0.01931802
C       11.36215000       0.00000000      13.87370128       0.01597064      -0.01649691       0.01174072
C        9.23177000       3.68992000      13.87515266      -0.00238649      -0.00705307      -0.01929347
C        7.10133000       7.37996000      13.87457578       0.00821924      -0.01135933       0.00097050
C        0.00000000       0.00000000      10.12561992      -0.09242945      -0.16040498       0.00115627
C       -2.13038000       3.68992000      10.12629784      -0.00584748      -0.01993478      -0.01174986