109
Lattice="12.782400131 0.0 0.0 -6.391200066 11.069883235 0.0 0.0 0.0 24.0" Properties=species:S:1:pos:R:3:forces:R:3 energy=-1004.4119530726975 stress="-0.06613085457398787 3.265640070744251e-06 1.0027882387189659e-09 3.265640070744251e-06 -0.06613485080166233 -1.0023899468694484e-09 1.0027882387189659e-09 -1.0023899468694484e-09 -0.00444828004161502" free_energy=-1004.4119530726975 pbc="T T T"
C        0.00000000       0.00000000      13.67500000      -0.15853822      -0.27492119       0.18878208
C       -2.13038000       3.68992000      13.67500000       0.02046008       0.00170117       0.03273184
C        8.52158000       7.37996000      13.67500000      -0.01619650      -0.01261371       0.03652791
C        4.26076000       0.00000000      13.67500000      -0.01062145       0.01732712       0.03272706
C        2.13038000       3.68992000      13.67500000       0.03611806       0.06417716       0.06127598
C       -0.00006000       7.37996000      13.67500000       0.00024334       0.00000784       0.03611731
C        8.52164000       0.00000000      13.67500000      -0.00240160      -0.01993871       0.03652812
C        6.39126000       3.68992000      13.67500000       0.00041674       0.00291368       0.03612024
C        4.26082000       7.37996000      13.67500000       0.01127723       0.01924167       0.03690181
C       -0.00000000       2.45995000      13.67500000      -0.15839763       0.27428128       0.18878425
C       -2.13044000       6.14998000      13.67500000       0.01203620      -0.02064049       0.03689605
C       -4.26082000       9.83991000      13.67500000       0.03555703      -0.06172960       0.06125424
C        4.26076000       2.45995000      13.67500000      -0.00888774      -0.01697914       0.03273346
C        2.13031000       6.14998000      13.67500000      -0.01314245       0.01208414       0.03654520
C       -0.00006000       9.83991000      13.67500000       0.00199137      -0.00025404       0.03611332
C        8.52164000       2.45995000      13.67500000      -0.00186835       0.01903131       0.03652777
C        6.39120000       6.14998000      13.67500000       0.00132874      -0.00093206       0.03611670
C        4.26082000       9.83991000      13.67500000       0.02040007       0.00027237       0.03272739
C        2.13038000       1.22997000      13.67500000       0.31732403       0.00027942       0.18879513
C        0.00000000       4.91990000      13.67500000      -0.01122577      -0.01503417       0.03274649
C       -2.13044000       8.60993000      13.67500000       0.01792274       0.00808045       0.03652999
C        6.39126000       1.22997000      13.67500000      -0.02703271       0.00030982       0.03690440
C        4.26089000       4.91990000      13.67500000       0.01253780      -0.00504823       0.03656127
C        2.13044000       8.60993000      13.67500000      -0.00414662       0.00028967       0.03612463
C       10.65202000       1.22997000      13.67500000      -0.07104962       0.00027850       0.06125659
C        8.52164000       4.91990000      13.67500000      -0.00234828       0.00262700       0.03612167
C        6.39120000       8.60993000      13.67500000      -0.00944720       0.01784133       0.03272487
C       11.36215000       2.45995000      13.67500000      -0.15472360       0.02366975       0.04861509
C       -3.55070000       6.14998000      13.67500000      -0.01043488      -0.00113213       0.03169612
C       -5.68107000       9.83991000      13.67500000       0.05715584      -0.14575810       0.04861616
C        2.84050000       2.45995000      13.67500000       0.09843347       0.12334323       0.04862570
C        0.71006000       6.14998000      13.67500000       0.01845818       0.01504144       0.02870329
C       -1.42032000       9.83991000      13.67500000       0.00603662      -0.02412621       0.02869698
C        7.10139000       2.45995000      13.67500000       0.00571925       0.00886449       0.03169922
C        4.97095000       6.14998000      13.67500000       0.00383885      -0.01171462       0.03170465
C        2.84057000       9.83991000      13.67500000      -0.02414562       0.00707266       0.02869543
C        0.71013000       1.22997000      13.67500000      -0.00020674       0.00033909       3.83147743
C       -1.42032000       4.92001000      13.67500000      -0.01047646       0.01833286       0.02914524
C       -3.55070000       8.60993000      13.67500000      -0.00648852       0.01216054       0.02224902
C        4.97088000       1.22997000      13.67500000       0.02848445       0.00030767       0.02914701
C        2.84044000       4.92001000      13.67500000      -0.00154190      -0.01508940       0.02225633
C        0.71006000       8.60993000      13.67500000       0.00368794       0.00011489       0.03163438
C        9.23177000       1.22997000      13.67500000       0.01361007       0.00028642       0.02224913
C        7.10133000       4.92001000      13.67500000       0.00122488      -0.00326414       0.03163631
C        4.97095000       8.60993000      13.67500000      -0.01265148      -0.02138456       0.02914815
C        2.84050000       0.00000000      13.67500000       0.09771193      -0.12247158       0.04862001
C        0.71013000       3.68992000      13.67500000       0.05655335       0.14642980       0.04862591
C       -1.42032000       7.37996000      13.67500000       0.00465535       0.00971386       0.03169663
C        7.10139000       0.00000000      13.67500000       0.00391152      -0.00932054       0.03169045
C        4.97101000       3.68992000      13.67500000       0.00288001       0.02417043       0.02869455
C        2.84057000       7.37996000      13.67500000      -0.01267874      -0.00142978       0.03169315
C       11.36215000       0.00000000      13.67500000      -0.15499398      -0.02318207       0.04861383
C        9.23177000       3.68992000      13.67500000      -0.02436044      -0.00696813       0.02869061
C        7.10133000       7.37996000      13.67500000       0.01803416      -0.01666064       0.02868918
C        0.00000000       0.00000000      10.32500000      -0.15346174      -0.26563099      -0.22549743
C       -2.13038000       3.68992000      10.32500000       0.02156633       0.01959202      -0.04098786
C        8.52158000       7.37996000      10.32500000       0.00463447       0.00635266      -0.03543093
C        4.26076000       0.00000000      10.32500000       0.00576519       0.02792865      -0.04098993
C        2.13038000       3.68992000      10.32500000       0.09942121       0.17249202      -0.00784845
C       -0.00006000       7.37996000      10.32500000       0.01019331       0.00934464      -0.03578123
C        8.52164000       0.00000000      10.32500000       0.00507647       0.00830160      -0.03542664
C        6.39126000       3.68992000      10.32500000       0.00506990       0.01530871      -0.03577832
C        4.26082000       7.37996000      10.32500000      -0.00482348      -0.01000504      -0.03587552
C       -0.00000000       2.45995000      10.32500000      -0.15348385       0.26546931      -0.22550351
C       -2.13044000       6.14998000      10.32500000      -0.00270965       0.00458393      -0.03587813
C       -4.26082000       9.83991000      10.32500000       0.09884579      -0.17150581      -0.00783639
C        4.26076000       2.45995000      10.32500000       0.00879756      -0.02792254      -0.04100345
C        2.13031000       6.14998000      10.32500000       0.01050423      -0.01151777      -0.03545680
C       -0.00006000       9.83991000      10.32500000       0.00819930      -0.01491699      -0.03578231
C        8.52164000       2.45995000      10.32500000       0.00515608      -0.00872758      -0.03542916
C        6.39120000       6.14998000      10.32500000       0.01196927      -0.01417554      -0.03578845
C        4.26082000       9.83991000      10.32500000       0.02127152      -0.01888151      -0.04098846
C        2.13038000       1.22997000      10.32500000       0.30641878       0.00037533      -0.22550994
C        0.00000000       4.91990000      10.32500000      -0.02759393      -0.00882077      -0.04099628
C       -2.13044000       8.60993000      10.32500000      -0.01024475       0.00063291      -0.03542689
C        6.39126000       1.22997000      10.32500000       0.00679765      -0.00045625      -0.03587054
C        4.26089000       4.91990000      10.32500000      -0.01271165      -0.00040712      -0.03543895
C        2.13044000       8.60993000      10.32500000      -0.01677413       0.00301927      -0.03577546
C       10.65202000       1.22997000      10.32500000      -0.19776006       0.00022180      -0.00783483
C        8.52164000       4.91990000      10.32500000      -0.01533218      -0.00298222      -0.03577201
C        6.39120000       8.60993000      10.32500000      -0.02705525       0.00961170      -0.04098295
C       -0.71013000       1.22997000      10.32500000      -0.29927137       0.00020918      -0.21234487
C       -2.84050000       4.91990000      10.32500000       0.00996729       0.00178355      -0.03083649
C       -4.97095000       8.60993000      10.32500000       0.02683886       0.00869149      -0.03734142
C        3.55063000       1.22997000      10.32500000       0.19867280       0.00049914      -0.00537879
C        1.42025000       4.91990000      10.32500000       0.02757846      -0.00703265      -0.03735809
C       -0.71019000       8.60993000      10.32500000       0.01530195       0.00295311      -0.03104241
C        7.81152000       1.22997000      10.32500000      -0.00916538      -0.00007152      -0.03101802
C        5.68114000       4.91990000      10.32500000       0.01493316      -0.00145227      -0.03105052
C        3.55070000       8.60993000      10.32500000       0.00897939      -0.00058314      -0.03084080
C        1.42025000       0.00000000      10.32500000       0.14992199      -0.25944790      -0.21235209
C       -0.71013000       3.68992000      10.32500000      -0.09879656       0.17156017      -0.00537496
C       -2.84057000       7.37996000      10.32500000       0.00490695      -0.00785408      -0.03101270
C        5.68101000       0.00000000      10.32500000      -0.00311766       0.00909367      -0.03083027
C        3.55063000       3.68992000      10.32500000      -0.01927372       0.01926041      -0.03734894
C        1.42019000       7.37996000      10.32500000      -0.00780944       0.01154287      -0.03104077
C        9.94190000       0.00000000      10.32500000      -0.00577970       0.02773274      -0.03734639
C        7.81152000       3.68992000      10.32500000      -0.00494015       0.01438214      -0.03103952
C        5.68107000       7.37996000      10.32500000      -0.00397548       0.00796471      -0.03083968
C        1.42025000       2.45995000      10.32500000       0.14997648       0.25922703      -0.21237000
C       -0.71013000       6.14987000      10.32500000      -0.00604645      -0.00548876      -0.03084308
C       -2.84057000       9.83991000      10.32500000      -0.02119014      -0.01893674      -0.03734632
C        5.68114000       2.45995000      10.32500000      -0.00882620      -0.00865273      -0.03083942
C        3.55076000       6.14987000      10.32500000      -0.00116831       0.01041269      -0.03102707
C        1.42032000       9.83991000      10.32500000      -0.00840707      -0.01486040      -0.03104001
C        9.94190000       2.45995000      10.32500000      -0.00592567      -0.02807760      -0.03734636
C        7.81152000       6.14987000      10.32500000      -0.01222475      -0.00824299      -0.03104105
C        5.68107000       9.83991000      10.32500000      -0.09889089      -0.17190078      -0.00537464
Li       0.71013000       1.22997000      12.00000000      -0.00000760       0.00000644      -3.37367023
109
Lattice="12.782400131 0.0 0.0 -6.391200066 11.069883235 0.0 0.0 0.0 24.0" Properties=species:S:1:pos:R:3:forces:R:3 energy=-1004.8149203041236 stress="-0.06615720251514463 3.262267633953942e-06 1.2287195692122323e-08 3.262267633953942e-06 -0.06616120614895145 -1.5588071203302935e-08 1.2287195692122323e-08 -1.5588071203302935e-08 -0.0033535380799578096" free_energy=-1004.8149203041236 pbc="T T T"
C        0.00000000       0.00000000      13.68108565      -0.11821871      -0.20507910       0.74516773
C       -2.13038000       3.68992000      13.67605516       0.01806365       0.00937712      -0.01910320
C        8.52158000       7.37996000      13.67617753      -0.01183522      -0.01514842       0.02838933
C        4.26076000       0.00000000      13.67605500      -0.00277711       0.01908841      -0.01910404
C        2.13038000       3.68992000      13.67697531       0.03233079       0.05762369       0.09591890
C       -0.00006000       7.37996000      13.67616429      -0.00117975       0.00021211       0.03199073
C        8.52164000       0.00000000      13.67617753      -0.00677726      -0.01742968       0.02838949
C        6.39126000       3.68992000      13.67616439       0.00130520       0.00178332       0.03199148
C        4.26082000       7.37996000      13.67618958       0.00871842       0.01480965       0.03319745
C        0.00000000       2.45995000      13.68108572      -0.11808902       0.20446877       0.74520502
C       -2.13044000       6.14998000      13.67618939       0.00947800      -0.01620980       0.03319336
C       -4.26082000       9.83991000      13.67697461       0.03177148      -0.05517407       0.09591486
C        4.26076000       2.45995000      13.67605521      -0.00104398      -0.01874365      -0.01910130
C        2.13031000       6.14998000      13.67617808      -0.00878321       0.01462095       0.02840315
C       -0.00006000       9.83991000      13.67616416       0.00288059       0.00087678       0.03198587
C        8.52164000       2.45995000      13.67617752      -0.00624386       0.01652306       0.02838980
C        6.39120000       6.14998000      13.67616427      -0.00009518      -0.00113675       0.03198918
C        4.26082000       9.83991000      13.67605501       0.01800125      -0.00740319      -0.01910383
C        2.13038000       1.22997000      13.68108607       0.23668065       0.00027301       0.74518000
C        0.00000000       4.91990000      13.67605563      -0.01667599      -0.00912505      -0.01909024
C       -2.13044000       8.60993000      13.67617759       0.01793745       0.00303664       0.02839235
C        6.39126000       1.22997000      13.67618966      -0.02191517       0.00030967       0.03319759
C        4.26089000       4.91990000      13.67617860       0.01256080      -0.00000457       0.02841177
C        2.13044000       8.60993000      13.67616453      -0.00361168      -0.00104558       0.03199258
C       10.65202000       1.22997000      13.67697469      -0.06347933       0.00027920       0.09591010
C        8.52164000       4.91990000      13.67616443      -0.00181328       0.00396219       0.03199098
C        6.39120000       8.60993000      13.67605493      -0.01489472       0.01192686      -0.01910548
C       11.36215000       2.45995000      13.67656717      -0.15014592       0.03065585       0.01542472
C       -3.55070000       6.14998000      13.67602177      -0.00964489      -0.00103795       0.03405644
C       -5.68107000       9.83991000      13.67656721       0.04881807      -0.14529185       0.01542585
C        2.84050000       2.45995000      13.67656752       0.10219774       0.11588433       0.01544393
C        0.71006000       6.14998000      13.67592529       0.01657629       0.01086161       0.03232901
C       -1.42032000       9.83991000      13.67592509       0.00335571      -0.02040231       0.03231899
C        7.10139000       2.45995000      13.67602187       0.00540518       0.00813362       0.03405926
C        4.97095000       6.14998000      13.67602204       0.00336352      -0.01107664       0.03406724
C        2.84057000       9.83991000      13.67592504      -0.01958071       0.00753243       0.03232000
C        0.71013000       1.22997000      13.79851291      -0.00020186       0.00032194      -0.17472869
C       -1.42032000       4.92001000      13.67593954      -0.01054683       0.01845520       0.03948074
C       -3.55070000       8.60993000      13.67571723      -0.00235566       0.00500097       0.03576045
C        4.97088000       1.22997000      13.67593959       0.02863270       0.00030774       0.03948014
C        2.84044000       4.92001000      13.67571746       0.00258113      -0.00792973       0.03577999
C        0.71006000       8.60993000      13.67601978       0.00368762       0.00011498       0.03386747
C        9.23177000       1.22997000      13.67571723       0.00534531       0.00028602       0.03576174
C        7.10133000       4.92001000      13.67601984       0.00122500      -0.00326397       0.03386951
C        4.97095000       8.60993000      13.67593963      -0.01272595      -0.02151371       0.03947836
C        2.84050000       0.00000000      13.67656733       0.10147568      -0.11501019       0.01542930
C        0.71013000       3.68992000      13.67656752       0.04821513       0.14595900       0.01544007
C       -1.42032000       7.37996000      13.67602178       0.00417954       0.00907664       0.03405566
C        7.10139000       0.00000000      13.67602158       0.00359784      -0.00858918       0.03405319
C        4.97101000       3.68992000      13.67592501       0.00020224       0.02044979       0.03232449
C        2.84057000       7.37996000      13.67602167      -0.01188821      -0.00152305       0.03405904
C       11.36215000       0.00000000      13.67656713      -0.15041709      -0.03016941       0.01542691
C        9.23177000       3.68992000      13.67592488      -0.01979561      -0.00742790       0.03231790
C        7.10133000       7.37996000      13.67592483       0.01614961      -0.01247721       0.03231392
C        0.00000000       0.00000000      10.31773078      -0.19058352      -0.32992742      -0.28182024
C       -2.13038000       3.68992000      10.32367870       0.02982384       0.01578913      -0.03326474
C        8.52158000       7.37996000      10.32385784       0.00478430       0.00651172      -0.03291589
C        4.26076000       0.00000000      10.32367863      -0.00165747       0.03317800      -0.03326595
C        2.13038000       3.68992000      10.32474699       0.10086091       0.17498760      -0.03567194
C       -0.00006000       7.37996000      10.32384654       0.01047105       0.00947633      -0.03330047
C        8.52164000       0.00000000      10.32385797       0.00513950       0.00851114      -0.03291550
C        6.39126000       3.68992000      10.32384664       0.00504535       0.01561546      -0.03329970
C        4.26082000       7.37996000      10.32384350      -0.00505996      -0.01041448      -0.03240170
C        0.00000000       2.45995000      10.31773059      -0.19060230       0.32976424      -0.28182368
C       -2.13044000       6.14998000      10.32384342      -0.00294722       0.00499578      -0.03240111
C       -4.26082000       9.83991000      10.32474738       0.10028480      -0.17399984      -0.03565990
C        4.26076000       2.45995000      10.32367820       0.00137209      -0.03317466      -0.03327606
C        2.13031000       6.14998000      10.32385700       0.01065337      -0.01167581      -0.03293530
C       -0.00006000       9.83991000      10.32384651       0.00817312      -0.01522344      -0.03329921
C        8.52164000       2.45995000      10.32385789       0.00521901      -0.00893701      -0.03291734
C        6.39120000       6.14998000      10.32384631       0.01224715      -0.01430635      -0.03330598
C        4.26082000       9.83991000      10.32367868       0.02952824      -0.01507928      -0.03326697
C        2.13038000       1.22997000      10.31773038       0.38066178       0.00037361      -0.28183431
C        0.00000000       4.91990000      10.32367843      -0.02842975      -0.01787484      -0.03327296
C       -2.13044000       8.60993000      10.32385797      -0.01045749       0.00058273      -0.03291487
C        6.39126000       1.22997000      10.32384366       0.00727322      -0.00045590      -0.03239588
C        4.26089000       4.91990000      10.32385758      -0.01292356      -0.00035563      -0.03292499
C        2.13044000       8.60993000      10.32384673      -0.01702657       0.00319462      -0.03329640
C       10.65202000       1.22997000      10.32474743      -0.20063838       0.00022299      -0.03565795
C        8.52164000       4.91990000      10.32384684      -0.01558468      -0.00315758      -0.03329417
C        6.39120000       8.60993000      10.32367886      -0.02789111       0.01866399      -0.03326205
C       -0.71013000       1.22997000      10.31815477      -0.37302118       0.00020782      -0.28414923
C       -2.84050000       4.91990000      10.32400594       0.01012433       0.00175954      -0.03245268
C       -4.97095000       8.60993000      10.32379625       0.02821328       0.01856679      -0.03310005
C        3.55063000       1.22997000      10.32482661       0.20170260       0.00049958      -0.03816919
C        1.42025000       4.91990000      10.32379571       0.02895158      -0.01691041      -0.03311836
C       -0.71019000       8.60993000      10.32399931       0.01556124       0.00311666      -0.03324475
C        7.81152000       1.22997000      10.32400009      -0.00955252      -0.00007152      -0.03220222
C        5.68114000       4.91990000      10.32399904       0.01519376      -0.00161587      -0.03325207
C        3.55070000       8.60993000      10.32400580       0.00913761      -0.00055908      -0.03245502
C        1.42025000       0.00000000      10.31815454       0.18679866      -0.32332021      -0.28415985
C       -0.71013000       3.68992000      10.32482673      -0.10031049       0.17418362      -0.03816540
C       -2.84057000       7.37996000      10.32400026       0.00510053      -0.00818928      -0.03220050
C        5.68101000       0.00000000      10.32400614      -0.00321727       0.00921803      -0.03244972
C        3.55063000       3.68992000      10.32379601      -0.02851371       0.01551235      -0.03311149
C        1.42019000       7.37996000      10.32399936      -0.00808132       0.01168678      -0.03324786
C        9.94190000       0.00000000      10.32379609       0.00208331       0.03385887      -0.03310270
C        7.81152000       3.68992000      10.32399940      -0.00492820       0.01468869      -0.03324069
C        5.68107000       7.37996000      10.32400584      -0.00403380       0.00811364      -0.03245561
C        1.42025000       2.45995000      10.31815396       0.18684963       0.32309902      -0.28416987
C       -0.71013000       6.14987000      10.32400573      -0.00610484      -0.00563629      -0.03245989
C       -2.84057000       9.83991000      10.32379609      -0.03042760      -0.01518970      -0.03310316
C        5.68114000       2.45995000      10.32400585      -0.00892255      -0.00877744      -0.03245672
C        3.55076000       6.14987000      10.32399980      -0.00097285       0.01074861      -0.03221618
C        1.42032000       9.83991000      10.32399938      -0.00839419      -0.01516686      -0.03324256
C        9.94190000       2.45995000      10.32379609       0.00193819      -0.03420510      -0.03310298
C        7.81152000       6.14987000      10.32399935      -0.01249614      -0.00838652      -0.03324447
C        5.68107000       9.83991000      10.32482674      -0.10040388      -0.17452366      -0.03816156
Li       0.71012975       1.22997021      11.89124513      -0.00001031       0.00000823      -0.17717920
109
Lattice="12.782400131 0.0 0.0 -6.391200066 11.069883235 0.0 0.0 0.0 24.0" Properties=species:S:1:pos:R:3:forces:R:3 energy=-1004.9143978979698 stress="-0.06628414728799095 3.2594973029481844e-06 4.204805330958786e-09 3.2594973029481844e-06 -0.06628814468062796 -4.7148857927654655e-09 4.204805330958786e-09 -4.7148857927654655e-09 -0.003146304524423082" free_energy=-1004.9143978979698 pbc="T T T"
C        0.00000000       0.00000000      13.73507525      -0.15050585      -0.26099710      -0.04552283
C       -2.13038000       3.68992000      13.67482299       0.01819967       0.01125300       0.00210593
C        8.52158000       7.37996000      13.67835304      -0.01046066      -0.01626496       0.03541314
C        4.26076000       0.00000000      13.67482276      -0.00122608       0.02014059       0.00210277
C        2.13038000       3.68992000      13.68407443       0.04101021       0.07266471      -0.01962304
C       -0.00006000       7.37996000      13.67859538      -0.00023986       0.00075328       0.03593324
C        8.52164000       0.00000000      13.67835306      -0.00843145      -0.01679793       0.03541517
C        6.39126000       3.68992000      13.67859554       0.00130368       0.00286749       0.03593370
C        4.26082000       7.37996000      13.67871004       0.00678037       0.01145242       0.04344827
C        0.00000000       2.45995000      13.73507799      -0.15038202       0.26039783      -0.04554790
C       -2.13044000       6.14998000      13.67870954       0.00753935      -0.01285201       0.04344009
C       -4.26082000       9.83991000      13.68407336       0.04045317      -0.07021270      -0.01963593
C        4.26076000       2.45995000      13.67482319       0.00050858      -0.01979561       0.00211921
C        2.13031000       6.14998000      13.67835465      -0.00740997       0.01573794       0.03542640
C       -0.00006000       9.83991000      13.67859489       0.00287949      -0.00020781       0.03593124
C        8.52164000       2.45995000      13.67835306      -0.00789799       0.01589185       0.03541674
C        6.39120000       6.14998000      13.67859525       0.00084473      -0.00167797       0.03593475
C        4.26082000       9.83991000      13.67482279       0.01813683      -0.00927351       0.00210292
C        2.13038000       1.22997000      13.73507660       0.30125708       0.00027217      -0.04552152
C        0.00000000       4.91990000      13.67482445      -0.01836983      -0.00830303       0.00212466
C       -2.13044000       8.60993000      13.67835333       0.01821727       0.00128829       0.03541586
C        6.39126000       1.22997000      13.67871014      -0.01803676       0.00030957       0.04344175
C        4.26089000       4.91990000      13.67835585       0.01284318       0.00174406       0.03543015
C        2.13044000       8.60993000      13.67859578      -0.00455061      -0.00050181       0.03593327
C       10.65202000       1.22997000      13.68407310      -0.08084404       0.00028003      -0.01963603
C        8.52164000       4.91990000      13.67859556      -0.00275258       0.00341857       0.03593277
C        6.39120000       8.60993000      13.67482258      -0.01658161       0.01110969       0.00210010
C       11.36215000       2.45995000      13.67786551      -0.12654316       0.02901058       0.32195096
C       -3.55070000       6.14998000      13.67858253      -0.00920722       0.00064441       0.02819933
C       -5.68107000       9.83991000      13.67786563       0.03844133      -0.12403688       0.32192605
C        2.84050000       2.45995000      13.67786727       0.08897490       0.09626737       0.32192883
C        0.71006000       6.14998000      13.67835057       0.01819674       0.01499036      -0.00860841
C       -1.42032000       9.83991000      13.67834962       0.00612173      -0.02387134      -0.00861734
C        7.10139000       2.45995000      13.67858285       0.00664315       0.00691515       0.02820142
C        4.97095000       6.14998000      13.67858361       0.00168922      -0.01153907       0.02820804
C        2.84057000       9.83991000      13.67834964      -0.02396778       0.00687136      -0.00861414
C        0.71013000       1.22997000      13.80152475      -0.00019837       0.00031835       0.53424363
C       -1.42032000       4.92001000      13.67887744      -0.01062639       0.01859369       0.00906599
C       -3.55070000       8.60993000      13.67836151       0.00082229      -0.00050319       0.01208739
C        4.97088000       1.22997000      13.67887746       0.02879956       0.00030738       0.00907705
C        2.84044000       4.92001000      13.67836317       0.00575999      -0.00242575       0.01210828
C        0.71006000       8.60993000      13.67856680       0.00368716       0.00011465       0.03412590
C        9.23177000       1.22997000      13.67836160      -0.00101033       0.00028513       0.01208284
C        7.10133000       4.92001000      13.67856701       0.00122511      -0.00326426       0.03412736
C        4.97095000       8.60993000      13.67887737      -0.01280979      -0.02165850       0.00907530
C        2.84050000       0.00000000      13.67786602       0.08825490      -0.09539137       0.32193038
C        0.71013000       3.68992000      13.67786700       0.03783976       0.12469410       0.32195599
C       -1.42032000       7.37996000      13.67858250       0.00250531       0.00953888       0.02820003
C        7.10139000       0.00000000      13.67858210       0.00483629      -0.00736944       0.02819871
C        4.97101000       3.68992000      13.67834993       0.00296834       0.02391641      -0.00860657
C        2.84057000       7.37996000      13.67858261      -0.01145134      -0.00320541       0.02820506
C       11.36215000       0.00000000      13.67786562      -0.12682055      -0.02852832       0.32192337
C        9.23177000       3.68992000      13.67834931      -0.02418336      -0.00676732      -0.00861861
C        7.10133000       7.37996000      13.67834898       0.01777010      -0.01660785      -0.00861768
C        0.00000000       0.00000000      10.29668897      -0.19817029      -0.34306912      -0.23393642
C       -2.13038000       3.68992000      10.32113691       0.02894335       0.01566266      -0.02540241