113
Lattice="13.017000198 0.0 0.0 -6.508500099 11.273052853 0.0 0.0 0.0 24.0" Properties=species:S:1:pos:R:3:forces:R:3 energy=-1042.539543087242 stress="-0.06806823013874966 2.072447333534737e-06 1.2811717089702133e-18 2.072447333534737e-06 -0.06806468814244539 9.32299358446736e-18 1.2811717089702133e-18 9.32299358446736e-18 -7.719316277867494e-05" free_energy=-1042.539543087242 pbc="T T T"
C        0.00000000       0.00000000      13.87500000      -0.06038694      -0.17526262      -0.02512618
C        9.76275000       5.63653000      13.87500000       0.00335164       0.00658450      -0.00219363
C        6.50850000       0.00000000      13.87500000       0.00948677       0.00287996      -0.00142957
C        3.25425000       5.63653000      13.87500000      -0.01994270       0.01127230       0.00519339
C       -0.46484000       2.41559000      13.87500000      -0.20530276      -0.03656567       0.03520658
C       -3.71909000       8.05212000      13.87500000      -0.00726182      -0.00877404      -0.00117386
C        6.04366000       2.41559000      13.87500000      -0.00152299       0.01042229      -0.00227099
C        2.78941000       8.05212000      13.87500000       0.00034399       0.01120180      -0.00132078
C       -0.92974000       4.83129000      13.87500000      -0.12128102       0.13950673      -0.02512647
C       -4.18399000      10.46782000      13.87500000       0.02037501       0.01084904       0.00518651
C        5.57876000       4.83129000      13.87500000       0.00459292      -0.00673138      -0.00219585
C        2.32451000      10.46782000      13.87500000      -0.00190519      -0.01033604      -0.00143176
C        1.85967000       1.61036000      13.87500000       0.13284640      -0.15408440       0.03522472
C       -1.39458000       7.24688000      13.87500000      -0.00984206      -0.00055866      -0.00226616
C        8.36817000       1.61036000      13.87500000      -0.01188140       0.00010817      -0.00131772
C        5.11392000       7.24688000      13.87500000       0.00923985       0.00388895      -0.00117022
C        1.39464000       4.02606000      13.87500000       0.07328983       0.19504694       0.03523054
C       -1.85961000       9.66258000      13.87500000       0.01213573      -0.00700614      -0.00131957
C        7.90314000       4.02606000      13.87500000      -0.00126973       0.00939294      -0.00117264
C        4.64889000       9.66258000      13.87500000       0.01201860      -0.00477153      -0.00226997
C        4.18412000       0.80523000      13.87500000      -0.01705707      -0.02039583       0.00519097
C        0.92987000       6.44176000      13.87500000       0.02027126      -0.00437422       0.00518933
C       10.69262000       0.80523000      13.87500000      -0.01240531       0.02013730       0.00519847
C        7.43837000       6.44176000      13.87500000      -0.00315793      -0.00165541      -0.00004735
C        3.71915000       3.22082000      13.87500000       0.18418866       0.03593129      -0.02512373
C        0.46490000       8.85735000      13.87500000      -0.00469375       0.00723713      -0.00143017
C       10.22765000       3.22082000      13.87500000       0.00238508      -0.02240720       0.00518982
C        6.97340000       8.85735000      13.87500000      -0.00510958      -0.00012861      -0.00219642
C       -2.32445000       4.56288000      13.87500000       0.01480925       0.01981261       0.00519107
C       -5.57870000      10.19941000      13.87500000      -0.02256052       0.00349567       0.00519738
C        4.18405000       4.56288000      13.87500000       0.01008965      -0.02070086       0.00519022
C        0.92980000      10.19941000      13.87500000       0.00085061       0.00077660      -0.00004166
C        0.46490000       1.34206000      13.87500000      -0.06501627      -0.19942004       0.03526373
C       -2.78935000       6.97858000      13.87500000      -0.00395313       0.00320535      -0.00131618
C        6.97340000       1.34206000      13.87500000       0.00950688      -0.01378139      -0.00117026
C        3.71915000       6.97858000      13.87500000      -0.00381651       0.00097611      -0.00226771
C        0.00007000       3.75765000      13.87500000      -0.13925738       0.15647090       0.03523001
C       -3.25418000       9.39417000      13.87500000       0.00329464       0.00392277      -0.00226484
C        6.50857000       3.75765000      13.87500000       0.00538252       0.00256056      -0.00131408
C        3.25432000       9.39417000      13.87500000      -0.01581540      -0.00049054      -0.00116804
C        2.78941000       0.53682000      13.87500000       0.12135991      -0.14211025      -0.02512296
C       -0.46484000       6.17335000      13.87500000      -0.02013859      -0.01414896       0.00518693
C        9.29791000       0.53682000      13.87500000      -0.00441425       0.00394932      -0.00220186
C        6.04366000       6.17335000      13.87500000       0.00216983       0.00696767      -0.00143291
C        2.32458000       2.95241000      13.87500000       0.19845844       0.04061899       0.03522381
C       -0.92967000       8.58894000      13.87500000       0.00025917       0.01182933      -0.00117088
C        8.83308000       2.95241000      13.87500000      -0.00551253      -0.00650923      -0.00226659
C        5.57883000       8.58894000      13.87500000      -0.00733308      -0.00813738      -0.00131652
C        1.85954000       5.36812000      13.87500000       0.06300023       0.17251933      -0.02513318
C       -1.39471000      11.00464000      13.87500000      -0.00071172      -0.00942312      -0.00219482
C        8.36804000       5.36812000      13.87500000      -0.00683655      -0.00558996      -0.00143123
C        5.11379000      11.00464000      13.87500000       0.02261725      -0.01410787       0.00519022
C        4.64896000       2.14718000      13.87500000       0.00232066       0.02638864       0.00518307
C        1.39471000       7.78370000      13.87500000       0.00987642       0.00443165      -0.00220383
C       11.15746000       2.14718000      13.87500000      -0.17960765      -0.03203667      -0.02513161
C        7.90321000       7.78370000      13.87500000       0.00947080      -0.00291226      -0.00143901
C        0.00000000       0.00000000      10.12500000      -0.06038694      -0.17526262       0.02512618
C        9.76275000       5.63653000      10.12500000       0.00335164       0.00658450       0.00219363
C        6.50850000       0.00000000      10.12500000       0.00948677       0.00287996       0.00142957
C        3.25425000       5.63653000      10.12500000      -0.01994270       0.01127230      -0.00519339
C       -0.46484000       2.41559000      10.12500000      -0.20530276      -0.03656567      -0.03520658
C       -3.71909000       8.05212000      10.12500000      -0.00726182      -0.00877404       0.00117386
C        6.04366000       2.41559000      10.12500000      -0.00152299       0.01042229       0.00227099
C        2.78941000       8.05212000      10.12500000       0.00034399       0.01120180       0.00132078
C       -0.92974000       4.83129000      10.12500000      -0.12128102       0.13950673       0.02512647
C       -4.18399000      10.46782000      10.12500000       0.02037501       0.01084904      -0.00518651
C        5.57876000       4.83129000      10.12500000       0.00459292      -0.00673138       0.00219585
C        2.32451000      10.46782000      10.12500000      -0.00190519      -0.01033604       0.00143176
C        1.85967000       1.61036000      10.12500000       0.13284640      -0.15408440      -0.03522472
C       -1.39458000       7.24688000      10.12500000      -0.00984206      -0.00055866       0.00226616
C        8.36817000       1.61036000      10.12500000      -0.01188140       0.00010817       0.00131772
C        5.11392000       7.24688000      10.12500000       0.00923985       0.00388895       0.00117022
C        1.39464000       4.02606000      10.12500000       0.07328983       0.19504694      -0.03523054
C       -1.85961000       9.66258000      10.12500000       0.01213573      -0.00700614       0.00131957
C        7.90314000       4.02606000      10.12500000      -0.00126973       0.00939294       0.00117264
C        4.64889000       9.66258000      10.12500000       0.01201860      -0.00477153       0.00226997
C        4.18412000       0.80523000      10.12500000      -0.01705707      -0.02039583      -0.00519097
C        0.92987000       6.44176000      10.12500000       0.02027126      -0.00437422      -0.00518933
C       10.69262000       0.80523000      10.12500000      -0.01240531       0.02013730      -0.00519847
C        7.43837000       6.44176000      10.12500000      -0.00315793      -0.00165541       0.00004735
C        3.71915000       3.22082000      10.12500000       0.18418866       0.03593129       0.02512373
C        0.46490000       8.85735000      10.12500000      -0.00469375       0.00723713       0.00143017
C       10.22765000       3.22082000      10.12500000       0.00238508      -0.02240720      -0.00518982
C        6.97340000       8.85735000      10.12500000      -0.00510958      -0.00012861       0.00219642
C       -2.32445000       4.56288000      10.12500000       0.01480925       0.01981261      -0.00519107
C       -5.57870000      10.19941000      10.12500000      -0.02256052       0.00349567      -0.00519738
C        4.18405000       4.56288000      10.12500000       0.01008965      -0.02070086      -0.00519022
C        0.92980000      10.19941000      10.12500000       0.00085061       0.00077660       0.00004166
C        0.46490000       1.34206000      10.12500000      -0.06501627      -0.19942004      -0.03526373
C       -2.78935000       6.97858000      10.12500000      -0.00395313       0.00320535       0.00131618
C        6.97340000       1.34206000      10.12500000       0.00950688      -0.01378139       0.00117026
C        3.71915000       6.97858000      10.12500000      -0.00381651       0.00097611       0.00226771
C        0.00007000       3.75765000      10.12500000      -0.13925738       0.15647090      -0.03523001
C       -3.25418000       9.39417000      10.12500000       0.00329464       0.00392277       0.00226484
C        6.50857000       3.75765000      10.12500000       0.00538252       0.00256056       0.00131408
C        3.25432000       9.39417000      10.12500000      -0.01581540      -0.00049054       0.00116804
C        2.78941000       0.53682000      10.12500000       0.12135991      -0.14211025       0.02512296
C       -0.46484000       6.17335000      10.12500000      -0.02013859      -0.01414896      -0.00518693
C        9.29791000       0.53682000      10.12500000      -0.00441425       0.00394932       0.00220186
C        6.04366000       6.17335000      10.12500000       0.00216983       0.00696767       0.00143291
C        2.32458000       2.95241000      10.12500000       0.19845844       0.04061899      -0.03522381
C       -0.92967000       8.58894000      10.12500000       0.00025917       0.01182933       0.00117088
C        8.83308000       2.95241000      10.12500000      -0.00551253      -0.00650923       0.00226659
C        5.57883000       8.58894000      10.12500000      -0.00733308      -0.00813738       0.00131652
C        1.85954000       5.36812000      10.12500000       0.06300023       0.17251933       0.02513318
C       -1.39471000      11.00464000      10.12500000      -0.00071172      -0.00942312       0.00219482
C        8.36804000       5.36812000      10.12500000      -0.00683655      -0.00558996       0.00143123
C        5.11379000      11.00464000      10.12500000       0.02261725      -0.01410787      -0.00519022
C        4.64896000       2.14718000      10.12500000       0.00232066       0.02638864      -0.00518307
C        1.39471000       7.78370000      10.12500000       0.00987642       0.00443165       0.00220383
C       11.15746000       2.14718000      10.12500000      -0.17960765      -0.03203667       0.02513161
C        7.90321000       7.78370000      10.12500000       0.00947080      -0.00291226       0.00143901
Li       0.92987000       2.68400000      12.00000000       0.00000367       0.00007085       0.00000000
113
Lattice="13.017000198 0.0 0.0 -6.508500099 11.273052853 0.0 0.0 0.0 24.0" Properties=species:S:1:pos:R:3:forces:R:3 energy=-1042.5405577552121 stress="-0.06807554564662562 2.07303022805478e-06 3.002488355713232e-18 2.07303022805478e-06 -0.0680720013921582 -4.621292982488304e-18 3.002488355713232e-18 -4.621292982488304e-18 -6.722848255196388e-05" free_energy=-1042.5405577552121 pbc="T T T"
C        0.00000000       0.00000000      13.87320527      -0.06056708      -0.17578085       0.00923739
C        9.76275000       5.63653000      13.87484331       0.00325906       0.00662819       0.00163726
C        6.50850000       0.00000000      13.87489789       0.00951424       0.00287173      -0.00039321
C        3.25425000       5.63653000      13.87537096      -0.01958474       0.01141780      -0.00863572
C       -0.46484000       2.41559000      13.87751476      -0.20473921      -0.03646083       0.02123908
C       -3.71909000       8.05212000      13.87491615      -0.00723493      -0.00881683      -0.00150169
C        6.04366000       2.41559000      13.87483779      -0.00141227       0.01040169       0.00178923
C        2.78941000       8.05212000      13.87490566       0.00036885       0.01124178      -0.00361159
C       -0.92974000       4.83129000      13.87320525      -0.12164144       0.13992409       0.00922060
C       -4.18399000      10.46782000      13.87537046       0.02032175       0.01046548      -0.00862742
C        5.57876000       4.83129000      13.87484315       0.00467689      -0.00667303       0.00163699
C        2.32451000      10.46782000      13.87489773      -0.00192603      -0.01035564      -0.00039535
C        1.85967000       1.61036000      13.87751605       0.13247126      -0.15365169       0.02124816
C       -1.39458000       7.24688000      13.87483813      -0.00987943      -0.00045272       0.00179005
C        8.36817000       1.61036000      13.87490588      -0.01192840       0.00010950      -0.00361125
C        5.11392000       7.24688000      13.87491641       0.00926362       0.00393355      -0.00150024
C        1.39464000       4.02606000      13.87751647       0.07309898       0.19450853       0.02122886
C       -1.85961000       9.66258000      13.87490575       0.01215787      -0.00704774      -0.00360708
C        7.90314000       4.02606000      13.87491624      -0.00132032       0.00939124      -0.00149786
C        4.64889000       9.66258000      13.87483786       0.01194539      -0.00485687       0.00179142
C        4.18412000       0.80523000      13.87537078      -0.01666811      -0.02039985      -0.00862114
C        0.92987000       6.44176000      13.87537067       0.02008069      -0.00403624      -0.00862417
C       10.69262000       0.80523000      13.87537132      -0.01260227       0.01980305      -0.00861848
C        7.43837000       6.44176000      13.87499662      -0.00315796      -0.00165541      -0.00183527
C        3.71915000       3.22082000      13.87320545       0.18473019       0.03603512       0.00920773
C        0.46490000       8.85735000      13.87489784      -0.00470044       0.00726510      -0.00039638
C       10.22765000       3.22082000      13.87537070       0.00207972      -0.02217012      -0.00863366
C        6.97340000       8.85735000      13.87484311      -0.00510102      -0.00023056       0.00163525
C       -2.32445000       4.56288000      13.87537079       0.01442092       0.01981639      -0.00862108
C       -5.57870000      10.19941000      13.87537124      -0.02236914       0.00315671      -0.00862171
C        4.18405000       4.56288000      13.87537073       0.01028739      -0.02036621      -0.00861793
C        0.92980000      10.19941000      13.87499702       0.00085060       0.00077656      -0.00183063
C        0.46490000       1.34206000      13.87751884      -0.06483057      -0.19887538       0.02122006
C       -2.78935000       6.97858000      13.87490599      -0.00397547       0.00324686      -0.00360842
C        6.97340000       1.34206000      13.87491641       0.00955736      -0.01377946      -0.00150104
C        3.71915000       6.97858000      13.87483802      -0.00374352       0.00106164       0.00179132
C        0.00007000       3.75765000      13.87751643      -0.13888082       0.15604001       0.02122152
C       -3.25418000       9.39417000      13.87483823       0.00333216       0.00381666       0.00178775
C        6.50857000       3.75765000      13.87490614       0.00542965       0.00255899      -0.00361040
C        3.25432000       9.39417000      13.87491657      -0.01583899      -0.00053524      -0.00150180
C        2.78941000       0.53682000      13.87320550       0.12172007      -0.14252683       0.00921072
C       -0.46484000       6.17335000      13.87537049      -0.02008588      -0.01376614      -0.00863046
C        9.29791000       0.53682000      13.87484272      -0.00449848       0.00389096       0.00163940
C        6.04366000       6.17335000      13.87489765       0.00219074       0.00698745      -0.00039562
C        2.32458000       2.95241000      13.87751599       0.19789840       0.04050880       0.02123529
C       -0.92967000       8.58894000      13.87491637       0.00023240       0.01187224      -0.00149991
C        8.83308000       2.95241000      13.87483810      -0.00562281      -0.00648861       0.00179077
C        5.57883000       8.58894000      13.87490596      -0.00735779      -0.00817745      -0.00361002
C        1.85954000       5.36812000      13.87320477       0.06318138       0.17304090       0.00922039
C       -1.39471000      11.00464000      13.87484323      -0.00061909      -0.00946659       0.00163583
C        8.36804000       5.36812000      13.87489777      -0.00686403      -0.00558175      -0.00039599
C        5.11379000      11.00464000      13.87537073       0.02225825      -0.01425391      -0.00863152
C        4.64896000       2.14718000      13.87537022       0.00262597       0.02615119      -0.00863308
C        1.39471000       7.78370000      13.87484258       0.00986791       0.00453353       0.00163392
C       11.15746000       2.14718000      13.87320488      -0.18015023      -0.03214043       0.00920948
C        7.90321000       7.78370000      13.87489721       0.00947732      -0.00294011      -0.00039851
C        0.00000000       0.00000000      10.12679473      -0.06056708      -0.17578085      -0.00923739
C        9.76275000       5.63653000      10.12515669       0.00325906       0.00662819      -0.00163726
C        6.50850000       0.00000000      10.12510211       0.00951424       0.00287173       0.00039321
C        3.25425000       5.63653000      10.12462904      -0.01958474       0.01141780       0.00863572
C       -0.46484000       2.41559000      10.12248524      -0.20473921      -0.03646083      -0.02123908
C       -3.71909000       8.05212000      10.12508385      -0.00723493      -0.00881683       0.00150169
C        6.04366000       2.41559000      10.12516221      -0.00141227       0.01040169      -0.00178923
C        2.78941000       8.05212000      10.12509434       0.00036885       0.01124178       0.00361159
C       -0.92974000       4.83129000      10.12679475      -0.12164144       0.13992409      -0.00922060
C       -4.18399000      10.46782000      10.12462954       0.02032175       0.01046548       0.00862742
C        5.57876000       4.83129000      10.12515685       0.00467689      -0.00667303      -0.00163699
C        2.32451000      10.46782000      10.12510227      -0.00192603      -0.01035564       0.00039535
C        1.85967000       1.61036000      10.12248395       0.13247126      -0.15365169      -0.02124816
C       -1.39458000       7.24688000      10.12516187      -0.00987943      -0.00045272      -0.00179005
C        8.36817000       1.61036000      10.12509412      -0.01192840       0.00010950       0.00361125
C        5.11392000       7.24688000      10.12508359       0.00926362       0.00393355       0.00150024
C        1.39464000       4.02606000      10.12248353       0.07309898       0.19450853      -0.02122886
C       -1.85961000       9.66258000      10.12509425       0.01215787      -0.00704774       0.00360708
C        7.90314000       4.02606000      10.12508376      -0.00132032       0.00939124       0.00149786
C        4.64889000       9.66258000      10.12516214       0.01194539      -0.00485687      -0.00179142
C        4.18412000       0.80523000      10.12462922      -0.01666811      -0.02039985       0.00862114
C        0.92987000       6.44176000      10.12462933       0.02008069      -0.00403624       0.00862417
C       10.69262000       0.80523000      10.12462868      -0.01260227       0.01980305       0.00861848
C        7.43837000       6.44176000      10.12500338      -0.00315796      -0.00165541       0.00183527
C        3.71915000       3.22082000      10.12679455       0.18473019       0.03603512      -0.00920773
C        0.46490000       8.85735000      10.12510216      -0.00470044       0.00726510       0.00039638
C       10.22765000       3.22082000      10.12462930       0.00207972      -0.02217012       0.00863366
C        6.97340000       8.85735000      10.12515689      -0.00510102      -0.00023056      -0.00163525
C       -2.32445000       4.56288000      10.12462921       0.01442092       0.01981639       0.00862108
C       -5.57870000      10.19941000      10.12462876      -0.02236914       0.00315671       0.00862171
C        4.18405000       4.56288000      10.12462927       0.01028739      -0.02036621       0.00861793
C        0.92980000      10.19941000      10.12500298       0.00085060       0.00077656       0.00183063
C        0.46490000       1.34206000      10.12248116      -0.06483057      -0.19887538      -0.02122006
C       -2.78935000       6.97858000      10.12509401      -0.00397547       0.00324686       0.00360842
C        6.97340000       1.34206000      10.12508359       0.00955736      -0.01377946       0.00150104
C        3.71915000       6.97858000      10.12516198      -0.00374352       0.00106164      -0.00179132
C        0.00007000       3.75765000      10.12248357      -0.13888082       0.15604001      -0.02122152
C       -3.25418000       9.39417000      10.12516177       0.00333216       0.00381666      -0.00178775
C        6.50857000       3.75765000      10.12509386       0.00542965       0.00255899       0.00361040
C        3.25432000       9.39417000      10.12508343      -0.01583899      -0.00053524       0.00150180
C        2.78941000       0.53682000      10.12679450       0.12172007      -0.14252683      -0.00921072
C       -0.46484000       6.17335000      10.12462951      -0.02008588      -0.01376614       0.00863046
C        9.29791000       0.53682000      10.12515728      -0.00449848       0.00389096      -0.00163940
C        6.04366000       6.17335000      10.12510235       0.00219074       0.00698745       0.00039562
C        2.32458000       2.95241000      10.12248401       0.19789840       0.04050880      -0.02123529
C       -0.92967000       8.58894000      10.12508363       0.00023240       0.01187224       0.00149991
C        8.83308000       2.95241000      10.12516190      -0.00562281      -0.00648861      -0.00179077
C        5.57883000       8.58894000      10.12509404      -0.00735779      -0.00817745       0.00361002
C        1.85954000       5.36812000      10.12679523       0.06318138       0.17304090      -0.00922039
C       -1.39471000      11.00464000      10.12515677      -0.00061909      -0.00946659      -0.00163583
C        8.36804000       5.36812000      10.12510223      -0.00686403      -0.00558175       0.00039599
C        5.11379000      11.00464000      10.12462927       0.02225825      -0.01425391       0.00863152
C        4.64896000       2.14718000      10.12462978       0.00262597       0.02615119       0.00863308
C        1.39471000       7.78370000      10.12515742       0.00986791       0.00453353      -0.00163392
C       11.15746000       2.14718000      10.12679512      -0.18015023      -0.03214043      -0.00920948
C        7.90321000       7.78370000      10.12510279       0.00947732      -0.00294011       0.00039851
Li       0.92987026       2.68400506      12.00000000       0.00000287       0.00006153       0.00000000
113
Lattice="13.017000198 0.0 0.0 -6.508500099 11.273052853 0.0 0.0 0.0 24.0" Properties=species:S:1:pos:R:3:forces:R:3 energy=-1042.5415434210163 stress="-0.06808475416065421 2.0730828852082098e-06 -1.9648477116277733e-18 2.0730828852082098e-06 -0.06808121275416822 5.8532870838624536e-18 -1.9648477116277733e-18 5.8532870838624536e-18 -4.658229045650298e-05" free_energy=-1042.5415434210163 pbc="T T T"
C        0.00000000       0.00000000      13.87440456      -0.06061323      -0.17592707      -0.00142291
C        9.76275000       5.63653000      13.87512581       0.00322262       0.00666704      -0.01811414
C        6.50850000       0.00000000      13.87476950       0.00946724       0.00278769      -0.00110497
C        3.25425000       5.63653000      13.87368361      -0.01914225       0.01196540       0.01210914
C       -0.46484000       2.41559000      13.88314942      -0.20430297      -0.03638495       0.01104252
C       -3.71909000       8.05212000      13.87455846      -0.00712338      -0.00876477       0.00071030
C        6.04366000       2.41559000      13.87515041      -0.00134019       0.01040226      -0.01970194
C        2.78941000       8.05212000      13.87409190       0.00041027       0.01127860       0.01168347
C       -0.92974000       4.83129000      13.87440093      -0.12174870       0.14004157      -0.00139531
C       -4.18399000      10.46782000      13.87368468       0.02057436       0.00980548       0.01207173
C        5.57876000       4.83129000      13.87512552       0.00472804      -0.00666080      -0.01811162
C        2.32451000      10.46782000      13.87476882      -0.00197516      -0.01027265      -0.00109944
C        1.85967000       1.61036000      13.88315322       0.13218139      -0.15331713       0.01104205
C       -1.39458000       7.24688000      13.87515108      -0.00991580      -0.00039107      -0.01969832
C        8.36817000       1.61036000      13.87409229      -0.01198096       0.00012659       0.01168783
C        5.11392000       7.24688000      13.87455915       0.00916321       0.00400398       0.00071064
C        1.39464000       4.02606000      13.88314969       0.07294905       0.19409980       0.01108295
C       -1.85961000       9.66258000      13.87409299       0.01216911      -0.00710225       0.01167702
C        7.90314000       4.02606000      13.87455941      -0.00133119       0.00926899       0.00070956
C        4.64889000       9.66258000      13.87515098       0.01190997      -0.00491889      -0.01970580
C        4.18412000       0.80523000      13.87368648      -0.01605838      -0.02073919       0.01143930
C        0.92987000       6.44176000      13.87368566       0.02007032      -0.00334115       0.01145141
C       10.69262000       0.80523000      13.87368782      -0.01319954       0.01944504       0.01143185
C        7.43837000       6.44176000      13.87460240      -0.00315802      -0.00165543       0.00163972
C        3.71915000       3.22082000      13.87439846       0.18488313       0.03606974      -0.00136535
C        0.46490000       8.85735000      13.87476876      -0.00460452       0.00726656      -0.00110296
C       10.22765000       3.22082000      13.87368368       0.00138257      -0.02206036       0.01208161
C        6.97340000       8.85735000      13.87512509      -0.00511611      -0.00028135      -0.01811606
C       -2.32445000       4.56288000      13.87368650       0.01381395       0.02015443       0.01146108
C       -5.57870000      10.19941000      13.87368702      -0.02235731       0.00246011       0.01148290
C        4.18405000       4.56288000      13.87368709       0.01088552      -0.02000855       0.01143307
C        0.92980000      10.19941000      13.87460398       0.00085053       0.00077652       0.00163925
C        0.46490000       1.34206000      13.88315120      -0.06468866      -0.19845297       0.01112838
C       -2.78935000       6.97858000      13.87409305      -0.00398671       0.00330092       0.01167988
C        6.97340000       1.34206000      13.87455897       0.00956812      -0.01365668       0.00070982
C        3.71915000       6.97858000      13.87515119      -0.00370851       0.00112419      -0.01970938
C        0.00007000       3.75765000      13.88314806      -0.13859283       0.15571084       0.01110803
C       -3.25418000       9.39417000      13.87515072       0.00336831       0.00375490      -0.01969670
C        6.50857000       3.75765000      13.87409284       0.00548228       0.00254121       0.01168288
C        3.25432000       9.39417000      13.87455904      -0.01573807      -0.00060591       0.00070813
C        2.78941000       0.53682000      13.87439918       0.12182294      -0.14263855      -0.00134976
C       -0.46484000       6.17335000      13.87368407      -0.02033953      -0.01310895       0.01208951
C        9.29791000       0.53682000      13.87512542      -0.00455034       0.00387860      -0.01811476
C        6.04366000       6.17335000      13.87476865       0.00223994       0.00690507      -0.00110322
C        2.32458000       2.95241000      13.88315037       0.19747086       0.04042152       0.01108979
C       -0.92967000       8.58894000      13.87455915       0.00012112       0.01182069       0.00071013
C        8.83308000       2.95241000      13.87515119      -0.00569400      -0.00648915      -0.01970447
C        5.57883000       8.58894000      13.87409267      -0.00739901      -0.00821435       0.01168411