113
Lattice="13.017000198 0.0 0.0 -6.508500099 11.273052853 0.0 0.0 0.0 24.0" Properties=species:S:1:pos:R:3:forces:R:3 energy=-1041.5730246605235 stress="-0.0660696848324082 3.399427700331572e-06 2.9196458575214667e-08 3.399427700331572e-06 -0.06607138249984876 -5.0784486751211765e-08 2.9196458575214667e-08 -5.0784486751211765e-08 -0.004356296170173088" free_energy=-1041.5730246605235 pbc="T T T"
C        0.00000000       0.00000000      13.67500000      -0.10378675      -0.30049081       0.18879585
C        9.76275000       5.63653000      13.67500000       0.01277120      -0.01670262       0.03687402
C        6.50850000       0.00000000      13.67500000      -0.00284701      -0.00138114       0.03620568
C        3.25425000       5.63653000      13.67500000       0.01725605      -0.00496380       0.03655200
C       -0.46484000       2.41559000      13.67500000      -0.20958642       0.24270630       0.18887178
C       -3.71909000       8.05212000      13.67500000      -0.01359076      -0.01081173       0.03653435
C        6.04366000       2.41559000      13.67500000      -0.02151036      -0.00060596       0.03685888
C        2.78941000       8.05212000      13.67500000      -0.00074160       0.00495697       0.03618931
C       -0.92974000       4.83129000      13.67500000      -0.00644968      -0.01917092       0.03274008
C       -4.18399000      10.46782000      13.67500000       0.04612899      -0.05394273       0.06128022
C        5.57876000       4.83129000      13.67500000       0.00077615      -0.00030204       0.03637184
C        2.32451000      10.46782000      13.67500000       0.00096910      -0.01838174       0.03649245
C        1.85967000       1.61036000      13.67500000       0.30817466       0.06278815       0.18873755
C       -1.39458000       7.24688000      13.67500000      -0.00107844       0.00108224       0.03619867
C        8.36817000       1.61036000      13.67500000      -0.00831741       0.01971994       0.03654403
C        5.11392000       7.24688000      13.67500000       0.00409907       0.02208419       0.03686649
C        1.39464000       4.02606000      13.67500000       0.02868827       0.06621127       0.06128194
C       -1.85961000       9.66258000      13.67500000       0.02029723       0.00942322       0.03649348
C        7.90314000       4.02606000      13.67500000       0.00505456       0.00026778       0.03637075
C        4.64889000       9.66258000      13.67500000       0.02490675       0.00364622       0.03273300
C        4.18412000       0.80523000      13.67500000      -0.01664557       0.01328224       0.03273131
C        0.92987000       6.44176000      13.67500000      -0.01947053       0.00622074       0.03648388
C       10.69262000       0.80523000      13.67500000      -0.07281998      -0.01491436       0.06127863
C        7.43837000       6.44176000      13.67500000      -0.00401908      -0.00258116       0.03636334
C        3.71915000       3.22082000      13.67500000      -0.00388824      -0.01760930       0.03273215
C        0.46490000       8.85735000      13.67500000       0.00321586       0.00089733       0.03679416
C       10.22765000       3.22082000      13.67500000       0.02280641       0.00447828       0.03272761
C        6.97340000       8.85735000      13.67500000      -0.00954126       0.01625835       0.03273002
C       -2.32445000       4.56288000      13.67500000      -0.01571184       0.01974834       0.02911556
C       -5.57870000      10.19941000      13.67500000       0.08476239      -0.13134407       0.04858668
C        4.18405000       4.56288000      13.67500000       0.00111627       0.02424147       0.02871105
C        0.92980000      10.19941000      13.67500000       0.00291616      -0.00059575       0.03203653
C        0.46490000       1.34206000      13.67500000       0.00322315      -0.00372481       3.83151312
C       -2.78935000       6.97858000      13.67500000       0.00262350       0.00437639       0.03170960
C        6.97340000       1.34206000      13.67500000       0.00948475      -0.00695987       0.03170941
C        3.71915000       6.97858000      13.67500000      -0.00336123      -0.00705986       0.03171060
C        0.00007000       3.75765000      13.67500000       0.02537088       0.15351026       0.04861047
C       -3.25418000       9.39417000      13.67500000      -0.01185650       0.00962422       0.02224405
C        6.50857000       3.75765000      13.67500000      -0.00082275       0.00703477       0.03156436
C        3.25432000       9.39417000      13.67500000      -0.02741695       0.00317109       0.02874485
C        2.78941000       0.53682000      13.67500000       0.11944795      -0.10474305       0.04861245
C       -0.46484000       6.17335000      13.67500000       0.01516208       0.01603866       0.02874985
C        9.29791000       0.53682000      13.67500000       0.01296278      -0.00037931       0.02224686
C        6.04366000       6.17335000      13.67500000       0.00557546      -0.00905112       0.03157449
C        2.32458000       2.95241000      13.67500000       0.06714474       0.14011240       0.04862174
C       -0.92967000       8.58894000      13.67500000      -0.00520662       0.00340608       0.03204214
C        8.83308000       2.95241000      13.67500000      -0.02578081      -0.01000897       0.02872081
C        5.57883000       8.58894000      13.67500000      -0.01338645      -0.02274168       0.02912058
C        1.85954000       5.36812000      13.67500000      -0.00144602      -0.01386361       0.02225208
C       -1.39471000      11.00464000      13.67500000       0.01189476      -0.02391981       0.02875887
C        8.36804000       5.36812000      13.67500000      -0.00499044      -0.00328433       0.03157646
C        5.11379000      11.00464000      13.67500000      -0.14502622      -0.05366769       0.04861912
C        4.64896000       2.14718000      13.67500000       0.02614692       0.00775242       0.02912221
C        1.39471000       7.78370000      13.67500000      -0.00064762       0.00239688       0.03204965
C       11.15746000       2.14718000      13.67500000      -0.15469854      -0.00371148       0.04862083
C        7.90321000       7.78370000      13.67500000       0.02159228      -0.00845994       0.02872886
C        0.00000000       0.00000000      10.32500000      -0.09783860      -0.29304381      -0.22550252
C        9.76275000       5.63653000      10.32500000      -0.00415728       0.00183276      -0.03564414
C        6.50850000       0.00000000      10.32500000       0.00844747      -0.01478226      -0.03606847
C        3.25425000       5.63653000      10.32500000      -0.00802160      -0.00516237      -0.03544230
C       -0.46484000       2.41559000      10.32500000      -0.20198655       0.23410179      -0.22553428
C       -3.71909000       8.05212000      10.32500000       0.00394900       0.00958695      -0.03544484
C        6.04366000       2.41559000      10.32500000       0.00834070       0.00307401      -0.03564584
C        2.78941000       8.05212000      10.32500000      -0.01276728       0.00033314      -0.03607421
C       -0.92974000       4.83129000      10.32500000      -0.02506917      -0.01211185      -0.04100630
C       -4.18399000      10.46782000      10.32500000       0.12932287      -0.14974916      -0.00784730
C        5.57876000       4.83129000      10.32500000       0.00002444       0.01080644      -0.03576475
C        2.32451000      10.46782000      10.32500000       0.00058759       0.00876049      -0.03550391
C        1.85967000       1.61036000      10.32500000       0.30073640       0.05992529      -0.22547242
C       -1.39458000       7.24688000      10.32500000       0.00641026       0.01376589      -0.03606697
C        8.36817000       1.61036000      10.32500000       0.00640483      -0.00564152      -0.03543463
C        5.11392000       7.24688000      10.32500000      -0.00184993      -0.00584445      -0.03563733
C        1.39464000       4.02606000      10.32500000       0.06810134       0.18705354      -0.00783993
C       -1.85961000       9.66258000      10.32500000      -0.00483660      -0.00343330      -0.03549826
C        7.90314000       4.02606000      10.32500000      -0.00604662      -0.00517650      -0.03575737
C        4.64889000       9.66258000      10.32500000       0.02802060      -0.01416753      -0.04099672
C        4.18412000       0.80523000      10.32500000      -0.00018454       0.02502672      -0.04099626
C        0.92987000       6.44176000      10.32500000       0.00699890      -0.00926448      -0.03549404
C       10.69262000       0.80523000      10.32500000      -0.19472978      -0.04108085      -0.00785339
C        7.43837000       6.44176000      10.32500000       0.00890619      -0.00947075      -0.03575605
C        3.71915000       3.22082000      10.32500000       0.01149088      -0.02464136      -0.04100091
C        0.46490000       8.85735000      10.32500000       0.00077562       0.00163383      -0.03724893
C       10.22765000       3.22082000      10.32500000       0.01732454       0.02492676      -0.04100226
C        6.97340000       8.85735000      10.32500000      -0.02754917       0.00575538      -0.04100034
C       -1.39471000       3.48935000      10.32500000      -0.12545857       0.14404987      -0.00533278
C       -4.64889000       9.12576000      10.32500000       0.02552042       0.01484448      -0.03734343
C        5.11386000       3.48924000      10.32500000      -0.00039111      -0.00890548      -0.03086568
C        1.85961000       9.12576000      10.32500000       0.00035444      -0.01016013      -0.03109720
C        1.39471000       0.26841000      10.32500000       0.19587177      -0.22875929      -0.21237262
C       -1.85954000       5.90494000      10.32500000      -0.00341610      -0.01146036      -0.03083605
C        7.90321000       0.26841000      10.32500000      -0.00786083      -0.00515793      -0.03072675
C        4.64896000       5.90494000      10.32500000       0.01318329      -0.00282335      -0.03139053
C        0.92987000       2.68400000      10.32500000       0.09564659       0.28231128      -0.21243293
C       -2.32438000       8.32053000      10.32500000       0.00477992      -0.00630482      -0.03072701
C        7.43837000       2.68400000      10.32500000      -0.00808121       0.01089631      -0.03139275
C        4.18412000       8.32053000      10.32500000       0.00849398       0.00102983      -0.03084252
C        0.46497000       5.09970000      10.32500000       0.02561154      -0.00348073      -0.03734857
C       -2.78928000      10.73623000      10.32500000      -0.02109729      -0.02199614      -0.03735440
C        6.97347000       5.09970000      10.32500000      -0.00329365       0.00092567      -0.03215555
C        3.71922000      10.73623000      10.32500000      -0.01381796       0.02731162      -0.03735403
C        3.25438000       1.87877000      10.32500000       0.19165348       0.03896924      -0.00536711
C        0.00013000       7.51529000      10.32500000      -0.01211974       0.00752424      -0.03110680
C        9.76288000       1.87877000      10.32500000      -0.00270964      -0.02744204      -0.03735322
C        6.50863000       7.51529000      10.32500000      -0.01022957       0.00733660      -0.03087658
C        2.78935000       4.29447000      10.32500000      -0.02409043       0.01382412      -0.03734544
C       -0.46490000       9.93100000      10.32500000       0.01011118       0.00422862      -0.03110134
C        9.29785000       4.29447000      10.32500000       0.00833395       0.00303489      -0.03087050
C        6.04360000       9.93100000      10.32500000      -0.06411084      -0.18820350      -0.00536577
C        5.57876000       1.07353000      10.32500000      -0.00611974       0.01182686      -0.03084639
C        2.32451000       6.71006000      10.32500000       0.00217991       0.01223878      -0.03073304
C       12.08726000       1.07353000      10.32500000      -0.29362649      -0.05141116      -0.21240691
C        8.83301000       6.71006000      10.32500000      -0.00613708      -0.00730457      -0.03139699
Li       0.46490000       1.34206000      12.00000000       0.00009199      -0.00001825      -3.37362922
113
Lattice="13.017000198 0.0 0.0 -6.508500099 11.273052853 0.0 0.0 0.0 24.0" Properties=species:S:1:pos:R:3:forces:R:3 energy=-1041.9761608189276 stress="-0.06609574765052666 3.3123112301294206e-06 -1.0925346866209641e-07 3.3123112301294206e-06 -0.06609737953071403 1.0891109781357505e-07 -1.0925346866209641e-07 1.0891109781357505e-07 -0.003300050702318375" free_energy=-1041.9761608189276 pbc="T T T"
C        0.00000000       0.00000000      13.68108764      -0.07738313      -0.22430702       0.74544511
C        9.76275000       5.63653000      13.67618899       0.00990870      -0.01326730       0.03325750
C        6.50850000       0.00000000      13.67616744      -0.00151460      -0.00005206       0.03196634
C        3.25425000       5.63653000      13.67617860       0.01641205      -0.00001968       0.02840534
C       -0.46484000       2.41559000      13.68109009      -0.15656453       0.18143391       0.74518403
C       -3.71909000       8.05212000      13.67617803      -0.00888898      -0.01255005       0.02839810
C        6.04366000       2.41559000      13.67618850      -0.01710141       0.00015436       0.03324728
C        2.78941000       8.05212000      13.67616691      -0.00025827       0.00313747       0.03195775
C       -0.92974000       4.83129000      13.67605569      -0.01294050      -0.01439933      -0.01911549
C       -4.18399000      10.46782000      13.67697595       0.04117012      -0.04822694       0.09591309
C        5.57876000       4.83129000      13.67617279       0.00211400      -0.00113089       0.03207905
C        2.32451000      10.46782000      13.67617668      -0.00388886      -0.01682157       0.02838922
C        1.85967000       1.61036000      13.68108576       0.22921552       0.04748622       0.74548911
C       -1.39458000       7.24688000      13.67616721      -0.00289578       0.00157280       0.03196206
C        8.36817000       1.61036000      13.67617835      -0.01217292       0.01651145       0.02839976
C        5.11392000       7.24688000      13.67618874       0.00255724       0.01788695       0.03325379
C        1.39464000       4.02606000      13.67697601       0.02621829       0.05906494       0.09593262
C       -1.85961000       9.66258000      13.67617672       0.02137012       0.00443522       0.02839476
C        7.90314000       4.02606000      13.67617276       0.00510040       0.00184290       0.03208066
C        4.64889000       9.66258000      13.67605546       0.02401190      -0.00436111      -0.01911039
C        4.18412000       0.80523000      13.67605541      -0.00927209       0.01651448      -0.01911750
C        0.92987000       6.44176000      13.67617641      -0.01568756       0.00964288       0.02839117
C       10.69262000       0.80523000      13.67697590      -0.06539035      -0.01348524       0.09594053
C        7.43837000       6.44176000      13.67617252      -0.00540510      -0.00332282       0.03208117
C        3.71915000       3.22082000      13.67605543       0.00411622      -0.01789153      -0.01912640
C        0.46490000       8.85735000      13.67618641       0.00321605       0.00089816       0.03457391
C       10.22765000       3.22082000      13.67605529       0.01903111       0.01154306      -0.01912397
C        6.97340000       8.85735000      13.67605537      -0.01378356       0.00946286      -0.01912510
C       -2.32445000       4.56288000      13.67593882      -0.01575581       0.01984080       0.03947326
C       -5.57870000      10.19941000      13.67656666       0.07649118      -0.13244268       0.01543378
C        4.18405000       4.56288000      13.67592578      -0.00080091       0.02017604       0.03242320
C        0.92980000      10.19941000      13.67603300       0.00312705       0.00043904       0.03414522
C        0.46490000       1.34206000      13.79854552       0.00295342      -0.00354705      -0.17559785
C       -2.78935000       6.97858000      13.67602246       0.00296818       0.00428159       0.03406308
C        6.97340000       1.34206000      13.67602246       0.00923083      -0.00721010       0.03406354
C        3.71915000       6.97858000      13.67602249      -0.00345295      -0.00671408       0.03406387
C        0.00007000       3.75765000      13.67656742       0.01729144       0.15154804       0.01543320
C       -3.25418000       9.39417000      13.67571725      -0.00648375       0.00341382       0.03572192
C        6.50857000       3.75765000      13.67601778      -0.00109218       0.00686505       0.03400366
C        3.25432000       9.39417000      13.67592687      -0.02303678       0.00444791       0.03235545
C        2.78941000       0.53682000      13.67656749       0.12166224      -0.09662674       0.01543507
C       -0.46484000       6.17335000      13.67592703       0.01407883       0.01161693       0.03236165
C        9.29791000       0.53682000      13.67571734       0.00489735      -0.00191778       0.03572570
C        6.04366000       6.17335000      13.67601811       0.00556329      -0.00873069       0.03400983
C        2.32458000       2.95241000      13.67656779       0.07222901       0.13349622       0.01544579
C       -0.92967000       8.58894000      13.67603319      -0.00620929       0.00307220       0.03414665
C        8.83308000       2.95241000      13.67592609      -0.02129385      -0.00963499       0.03242511
C        5.57883000       8.58894000      13.67593898      -0.01344304      -0.02282788       0.03946672
C        1.85954000       5.36812000      13.67571751       0.00124242      -0.00610907       0.03572885
C       -1.39471000      11.00464000      13.67592732       0.00860305      -0.02076917       0.03236892
C        8.36804000       5.36812000      13.67601817      -0.00470893      -0.00343351       0.03401166
C        5.11379000      11.00464000      13.67656770      -0.13921599      -0.05965308       0.01545238
C        4.64896000       2.14718000      13.67593903       0.02624906       0.00774976       0.03946715
C        1.39471000       7.78370000      13.67603343       0.00014350       0.00169735       0.03414751
C       11.15746000       2.14718000      13.67656776      -0.15157692       0.00401806       0.01543573
C        7.90321000       7.78370000      13.67592635       0.01903172      -0.00477305       0.03242599
C        0.00000000       0.00000000      10.31772877      -0.12217454      -0.36318050      -0.28181739
C        9.76275000       5.63653000      10.32385067      -0.00436267       0.00200649      -0.03238549
C        6.50850000       0.00000000      10.32383699       0.00856110      -0.01495155      -0.03335339
C        3.25425000       5.63653000      10.32385718      -0.00828771      -0.00513775      -0.03292076
C       -0.46484000       2.41559000      10.31772774      -0.25062332       0.29024873      -0.28190267
C       -3.71909000       8.05212000      10.32385710       0.00410384       0.00980430      -0.03292347
C        6.04366000       2.41559000      10.32385061       0.00859314       0.00316462      -0.03238720
C        2.78941000       8.05212000      10.32383680      -0.01297104       0.00031946      -0.03335635
C       -0.92974000       4.83129000      10.32367777      -0.02419642      -0.02116520      -0.03327033
C       -4.18399000      10.46782000      10.32474697       0.13122219      -0.15193904      -0.03567752
C        5.57876000       4.83129000      10.32384678      -0.00040777       0.01075837      -0.03374872
C        2.32451000      10.46782000      10.32385519       0.00047364       0.00894112      -0.03286863
C        1.85967000       1.61036000      10.31772974       0.37363876       0.07394293      -0.28179455
C       -1.39458000       7.24688000      10.32383704       0.00650001       0.01394981      -0.03335197
C        8.36817000       1.61036000      10.32385743       0.00651715      -0.00588371      -0.03291847
C        5.11392000       7.24688000      10.32385089      -0.00189756      -0.00610961      -0.03238348
C        1.39464000       4.02606000      10.32474720       0.06905508       0.18977371      -0.03566335
C       -1.85961000       9.66258000      10.32385537      -0.00493674      -0.00362066      -0.03286781
C        7.90314000       4.02606000      10.32384702      -0.00578933      -0.00552637      -0.03374618
C        4.64889000       9.66258000      10.32367808       0.03544040      -0.00887575      -0.03327135
C        4.18412000       0.80523000      10.32367809      -0.00846058       0.02878946      -0.03327388
C        0.92987000       6.44176000      10.32385551       0.00721187      -0.00925698      -0.03286559
C       10.69262000       0.80523000      10.32474677      -0.19754174      -0.04163105      -0.03567107
C        7.43837000       6.44176000      10.32384706       0.00908056      -0.00907237      -0.03374720
C        3.71915000       3.22082000      10.32367794       0.00520073      -0.03121748      -0.03326660
C        0.46490000       8.85735000      10.32379892       0.00077607       0.00163335      -0.03358211
C       10.22765000       3.22082000      10.32367790       0.02616878       0.02276873      -0.03326239
C        6.97340000       8.85735000      10.32367796      -0.03010247       0.01449912      -0.03326441
C       -1.39471000       3.48935000      10.32482805      -0.12745878       0.14635773      -0.03817414
C       -4.64889000       9.12576000      10.32379588       0.02501827       0.02482617      -0.03310969
C        5.11386000       3.48924000      10.32400475      -0.00033908      -0.00900727      -0.03238785
C        1.85961000       9.12576000      10.32399728       0.00075969      -0.01011945      -0.03377249
C        1.39471000       0.26841000      10.31815213       0.24416640      -0.28450336      -0.28414634
C       -1.85954000       5.90494000      10.32400570      -0.00348424      -0.01165338      -0.03245080
C        7.90321000       0.26841000      10.32400923      -0.00802204      -0.00524026      -0.03213794
C        4.64896000       5.90494000      10.32398783       0.01338868      -0.00279028      -0.03335069
C        0.92987000       2.68400000      10.31815019       0.11982193       0.35203805      -0.28424614
C       -2.32438000       8.32053000      10.32400922       0.00493198      -0.00640244      -0.03213836
C        7.43837000       2.68400000      10.32398775      -0.00821146       0.01105782      -0.03335067
C        4.18412000       8.32053000      10.32400550       0.00869635       0.00106835      -0.03245285
C        0.46497000       5.09970000      10.32379571       0.02883985      -0.01292612      -0.03310906
C       -2.78928000      10.73623000      10.32379552      -0.03089986      -0.02007438      -0.03311006
C        6.97347000       5.09970000      10.32396316      -0.00329312       0.00092581      -0.03333129
C        3.71922000      10.73623000      10.32379554      -0.00725377       0.03483786      -0.03311137
C        3.25438000       1.87877000      10.32482694       0.19463157       0.03955332      -0.03817179
C        0.00013000       7.51529000      10.32399697      -0.01228625       0.00715152      -0.03377453
C        9.76288000       1.87877000      10.32379556       0.00617208      -0.03198583      -0.03311435
C        6.50863000       7.51529000      10.32400440      -0.01034530       0.00734476      -0.03239024
C        2.78935000       4.29447000      10.32379581      -0.03248230       0.00839983      -0.03310834
C       -0.46490000       9.93100000      10.32399715       0.00987198       0.00455930      -0.03377276
C        9.29785000       4.29447000      10.32400459       0.00839649       0.00313046      -0.03238864
C        6.04360000       9.93100000      10.32482698      -0.06511056      -0.19109262      -0.03818056
C        5.57876000       1.07353000      10.32400537      -0.00625349       0.01198340      -0.03245497
C        2.32451000       6.71006000      10.32400903       0.00218765       0.01241758      -0.03214113
C       12.08726000       1.07353000      10.31815103      -0.36606262      -0.06539538      -0.28420434
C        8.83301000       6.71006000      10.32398762      -0.00621095      -0.00749973      -0.03335374
Li       0.46490297       1.34205941      11.89121875       0.00005321      -0.00001867      -0.17668306
113
Lattice="13.017000198 0.0 0.0 -6.508500099 11.273052853 0.0 0.0 0.0 24.0" Properties=species:S:1:pos:R:3:forces:R:3 energy=-1042.076016430239 stress="-0.06621965390960279 3.3036344125177225e-06 -3.544114752921707e-08 3.3036344125177225e-06 -0.06622125968434224 5.540238451862924e-08 -3.544114752921707e-08 5.540238451862924e-08 -0.003099105548207177" free_energy=-1042.076016430239 pbc="T T T"
C        0.00000000       0.00000000      13.73509993      -0.09853045      -0.28541161      -0.04575415
C        9.76275000       5.63653000      13.67871417       0.00761872      -0.01049146       0.04273025
C        6.50850000       0.00000000      13.67859768      -0.00109417      -0.00116241       0.03664526
C        3.25425000       5.63653000      13.67835590       0.01659079       0.00167819       0.03546445
C       -0.46484000       2.41559000      13.73508404      -0.19887420       0.23028316      -0.04567152
C       -3.71909000       8.05212000      13.67835474      -0.00750887      -0.01355430       0.03546157
C        6.04366000       2.41559000      13.67871289      -0.01354906       0.00074836       0.04272723
C        2.78941000       8.05212000      13.67859648      -0.00142888       0.00332777       0.03663890
C       -0.92974000       4.83129000      13.67482317      -0.01475372      -0.01393033       0.00214189
C       -4.18399000      10.46782000      13.68407559       0.05254103      -0.06138110      -0.01969515
C        5.57876000       4.83129000      13.67861177       0.00146171       0.00009102       0.03562726
C        2.32451000      10.46782000      13.67835259      -0.00547939      -0.01671365       0.03572708
C        1.85967000       1.61036000      13.73510096       0.29271248       0.05968226      -0.04565319
C       -1.39458000       7.24688000      13.67859712      -0.00214280       0.00248714       0.03664082
C        8.36817000       1.61036000      13.67835521      -0.01373277       0.01581692       0.03546240
C        5.11392000       7.24688000      13.67871363       0.00130000       0.01451450       0.04272802
C        1.39464000       4.02606000      13.68407705       0.03189198       0.07548474      -0.01966288
C       -1.85961000       9.66258000      13.67835302       0.02207248       0.00300336       0.03573067
C        7.90314000       4.02606000      13.67861184       0.00436760       0.00066988       0.03562873
C        4.64889000       9.66258000      13.67482328       0.02451767      -0.00617348       0.00213178
C        4.18412000       0.80523000      13.67482271      -0.00794386       0.01784184       0.00211164
C        0.92987000       6.44176000      13.67835241      -0.01479980       0.01096430       0.03572814
C       10.69262000       0.80523000      13.68407749      -0.08245124      -0.01675767      -0.01966062
C        7.43837000       6.44176000      13.67861161      -0.00401974      -0.00336341       0.03563394
C        3.71915000       3.22082000      13.67482210       0.00581834      -0.01864617       0.00214268
C        0.46490000       8.85735000      13.67880530       0.00321592       0.00089863       0.03356742
C       10.22765000       3.22082000      13.67482211       0.01885952       0.01336998       0.00216401
C        6.97340000       8.85735000      13.67482212      -0.01527820       0.00839412       0.00215080
C       -2.32445000       4.56288000      13.67887650      -0.01583777       0.01997421       0.00883399
C       -5.57870000      10.19941000      13.67786625       0.06226211      -0.11350370       0.32210304
C        4.18405000       4.56288000      13.67835824       0.00128800       0.02428641      -0.00846337
C        0.92980000      10.19941000      13.67860197       0.00303566       0.00070676       0.03107971
C        0.46490000       1.34206000      13.80155264       0.00295655      -0.00353347       0.53373705
C       -2.78935000       6.97858000      13.67858423       0.00161119       0.00475225       0.02808788
C        6.97340000       1.34206000      13.67858426       0.01031801      -0.00626845       0.02808214
C        3.71915000       6.97858000      13.67858432      -0.00318416      -0.00812530       0.02808652
C        0.00007000       3.75765000      13.67786708       0.01111562       0.12871700       0.32198729
C       -3.25418000       9.39417000      13.67835909      -0.00241917      -0.00127175       0.01183707
C        6.50857000       3.75765000      13.67857471       0.00025382       0.00572775       0.03164513
C        3.25432000       9.39417000      13.67835463      -0.02731878       0.00295291      -0.00840448
C        2.78941000       0.53682000      13.67786728       0.10493317      -0.07981864       0.32203307
C       -0.46484000       6.17335000      13.67835525       0.01492413       0.01607759      -0.00840363
C        9.29791000       0.53682000      13.67835946      -0.00118987      -0.00309118       0.01184273
C        6.04366000       6.17335000      13.67857552       0.00390564      -0.00932572       0.03164660
C        2.32458000       2.95241000      13.67786838       0.06292856       0.11170606       0.32211434
C       -0.92967000       8.58894000      13.67860227      -0.00639609       0.00285968       0.03107983
C        8.83308000       2.95241000      13.67835873      -0.02590444      -0.00988463      -0.00844755
C        5.57883000       8.58894000      13.67887622      -0.01353019      -0.02296504       0.00885480