125
Lattice="13.696700096 0.0 0.0 -6.848350048 11.861690231 0.0 0.0 0.0 24.0" Properties=species:S:1:pos:R:3:forces:R:3 energy=-1154.0340620830793 stress="-0.06789594766229883 3.5593201531489415e-06 -1.2112317947052562e-18 3.5593201531489415e-06 -0.06789450803115359 4.366023039855899e-19 -1.2112317947052562e-18 4.366023039855899e-19 -7.125914400819013e-05" free_energy=-1154.0340620830793 pbc="T T T"
C        0.00000000       0.00000000      13.87500000      -0.02874963      -0.18219778      -0.02513789
C       -0.88364000       2.29583000      13.87500000      -0.19359928      -0.07444893       0.03524672
C       -1.76729000       4.59166000      13.87500000      -0.14287143       0.11537878      -0.02513948
C       -2.65106000       6.88749000      13.87500000      -0.00770394      -0.00452354      -0.00219720
C       -3.53464000       9.18320000      13.87500000      -0.00572682      -0.00842425      -0.00141873
C       -4.41828000      11.47903000      13.87500000       0.01852694       0.01439033       0.00519235
C        1.54643000       1.91317000      13.87500000       0.16106667      -0.13018017       0.03524897
C        0.66278000       4.20900000      13.87500000       0.03166009       0.20416333       0.03524892
C       -0.22100000       6.50483000      13.87500000       0.02362245       0.00176353       0.00519177
C       -1.10464000       8.80066000      13.87500000      -0.00910439       0.00397359      -0.00141557
C       -1.98821000      11.09637000      13.87500000       0.00256261      -0.00327443      -0.00123738
C        3.97649000       1.53051000      13.87500000      -0.00982906      -0.02099054       0.00519443
C        3.09285000       3.82634000      13.87500000       0.17234995       0.06649934      -0.02513655
C        2.20907000       6.12217000      13.87500000      -0.01854898       0.00747818       0.00519635
C        1.32543000       8.41800000      13.87500000       0.00228825       0.00811263      -0.00123563
C        0.44179000      10.71383000      13.87500000       0.00070654      -0.00050130      -0.00002831
C        6.40656000       1.14786000      13.87500000       0.00589589       0.00868805      -0.00141034
C        5.52292000       3.44369000      13.87500000       0.00052616       0.00840433      -0.00219395
C        4.63928000       5.73952000      13.87500000       0.00340917      -0.00649455      -0.00217463
C        3.75550000       8.03535000      13.87500000       0.01081400       0.00270946      -0.00141999
C        2.87186000      10.33118000      13.87500000       0.00087213      -0.01098921      -0.00140919
C        8.83656000       0.76532000      13.87500000      -0.00721779      -0.00265136      -0.00124209
C        7.95299000       3.06103000      13.87500000      -0.01146652       0.01037846      -0.00141944
C        7.06935000       5.35686000      13.87500000      -0.00100538      -0.00258166       0.00030464
C        6.18557000       7.65269000      13.87500000      -0.00168475       0.00142347       0.00030339
C        5.30192000       9.94852000      13.87500000       0.00739012      -0.00474275      -0.00219552
C       11.26663000       0.38266000      13.87500000      -0.01292693       0.01938789       0.00519513
C       10.38299000       2.67849000      13.87500000       0.00400656      -0.02379474       0.00518531
C        9.49941000       4.97420000      13.87500000      -0.00007110       0.01185580      -0.00217828
C        8.61564000       7.27003000      13.87500000      -0.00067736       0.00292365       0.00030392
C        7.73199000       9.56586000      13.87500000      -0.00753121      -0.00142408      -0.00217629
C       -4.86014000       8.67303000      13.87500000       0.00939195      -0.00391246      -0.00141574
C       -5.74378000      10.96886000      13.87500000      -0.02333500      -0.00146298       0.00519482
C        0.22093000       1.40300000      13.87500000      -0.03223322      -0.20482802       0.03524963
C       -0.66271000       3.69883000      13.87500000      -0.16166348       0.13031383       0.03524868
C       -1.54649000       5.99466000      13.87500000      -0.01808865      -0.01411699       0.00518672
C       -2.43014000       8.29049000      13.87500000       0.00595476       0.00862424      -0.00141869
C       -3.31371000      10.58620000      13.87500000       0.00685114       0.00441725      -0.00220088
C        2.65100000       1.02034000      13.87500000       0.14311983      -0.11591238      -0.02513843
C        1.76735000       3.31617000      13.87500000       0.19371221       0.07488604       0.03525082
C        0.88357000       5.61200000      13.87500000       0.03023414       0.18247636      -0.02513127
C       -0.00007000       7.90783000      13.87500000       0.00776161       0.00140972      -0.00217533
C       -0.88371000      10.20366000      13.87500000       0.00102597      -0.00337975       0.00030220
C        5.08106000       0.63768000      13.87500000      -0.00346863      -0.00664313      -0.00218362
C        4.19742000       2.93351000      13.87500000      -0.00327139       0.02317211       0.00519367
C        3.31378000       5.22934000      13.87500000       0.00990897      -0.01828351       0.00519433
C        2.43000000       7.52517000      13.87500000      -0.00724260       0.00466803      -0.00219115
C        1.54636000       9.82101000      13.87500000       0.00147011      -0.00179229       0.00030530
C        7.51106000       0.25514000      13.87500000       0.00349983      -0.00022013       0.00030270
C        6.62749000       2.55086000      13.87500000       0.00747210      -0.00726596      -0.00142341
C        5.74385000       4.84669000      13.87500000       0.00789178       0.00168802      -0.00123700
C        4.86007000       7.14252000      13.87500000      -0.00020776       0.01164616      -0.00140941
C        3.97643000       9.43835000      13.87500000      -0.01120506      -0.00345502      -0.00141772
C        3.09278000      11.73418000      13.87500000      -0.00515871       0.00634074      -0.00217596
C        9.05749000       2.16832000      13.87500000       0.00243570      -0.01126501      -0.00219564
C        8.17392000       4.46403000      13.87500000      -0.00924878      -0.00567992      -0.00141445
C        7.29014000       6.75986000      13.87500000      -0.00013478       0.00053266      -0.00002588
C        6.40649000       9.05569000      13.87500000      -0.00212079      -0.00785020      -0.00123573
C        5.52285000      11.35152000      13.87500000       0.02177401      -0.00855357       0.00519216
C       11.48756000       1.78566000      13.87500000      -0.17242704      -0.06607236      -0.02513697
C       10.60392000       4.08149000      13.87500000       0.01260052       0.01875096       0.00519441
C        9.72014000       6.37732000      13.87500000      -0.00228108       0.00146273      -0.00123959
C        0.00000000       0.00000000      10.12500000      -0.02874963      -0.18219778       0.02513789
C       -0.88364000       2.29583000      10.12500000      -0.19359928      -0.07444893      -0.03524672
C       -1.76729000       4.59166000      10.12500000      -0.14287143       0.11537878       0.02513948
C       -2.65106000       6.88749000      10.12500000      -0.00770394      -0.00452354       0.00219720
C       -3.53464000       9.18320000      10.12500000      -0.00572682      -0.00842425       0.00141873
C       -4.41828000      11.47903000      10.12500000       0.01852694       0.01439033      -0.00519235
C        1.54643000       1.91317000      10.12500000       0.16106667      -0.13018017      -0.03524897
C        0.66278000       4.20900000      10.12500000       0.03166009       0.20416333      -0.03524892
C       -0.22100000       6.50483000      10.12500000       0.02362245       0.00176353      -0.00519177
C       -1.10464000       8.80066000      10.12500000      -0.00910439       0.00397359       0.00141557
C       -1.98821000      11.09637000      10.12500000       0.00256261      -0.00327443       0.00123738
C        3.97649000       1.53051000      10.12500000      -0.00982906      -0.02099054      -0.00519443
C        3.09285000       3.82634000      10.12500000       0.17234995       0.06649934       0.02513655
C        2.20907000       6.12217000      10.12500000      -0.01854898       0.00747818      -0.00519635
C        1.32543000       8.41800000      10.12500000       0.00228825       0.00811263       0.00123563
C        0.44179000      10.71383000      10.12500000       0.00070654      -0.00050130       0.00002831
C        6.40656000       1.14786000      10.12500000       0.00589589       0.00868805       0.00141034
C        5.52292000       3.44369000      10.12500000       0.00052616       0.00840433       0.00219395
C        4.63928000       5.73952000      10.12500000       0.00340917      -0.00649455       0.00217463
C        3.75550000       8.03535000      10.12500000       0.01081400       0.00270946       0.00141999
C        2.87186000      10.33118000      10.12500000       0.00087213      -0.01098921       0.00140919
C        8.83656000       0.76532000      10.12500000      -0.00721779      -0.00265136       0.00124209
C        7.95299000       3.06103000      10.12500000      -0.01146652       0.01037846       0.00141944
C        7.06935000       5.35686000      10.12500000      -0.00100538      -0.00258166      -0.00030464
C        6.18557000       7.65269000      10.12500000      -0.00168475       0.00142347      -0.00030339
C        5.30192000       9.94852000      10.12500000       0.00739012      -0.00474275       0.00219552
C       11.26663000       0.38266000      10.12500000      -0.01292693       0.01938789      -0.00519513
C       10.38299000       2.67849000      10.12500000       0.00400656      -0.02379474      -0.00518531
C        9.49941000       4.97420000      10.12500000      -0.00007110       0.01185580       0.00217828
C        8.61564000       7.27003000      10.12500000      -0.00067736       0.00292365      -0.00030392
C        7.73199000       9.56586000      10.12500000      -0.00753121      -0.00142408       0.00217629
C       -4.86014000       8.67303000      10.12500000       0.00939195      -0.00391246       0.00141574
C       -5.74378000      10.96886000      10.12500000      -0.02333500      -0.00146298      -0.00519482
C        0.22093000       1.40300000      10.12500000      -0.03223322      -0.20482802      -0.03524963
C       -0.66271000       3.69883000      10.12500000      -0.16166348       0.13031383      -0.03524868
C       -1.54649000       5.99466000      10.12500000      -0.01808865      -0.01411699      -0.00518672
C       -2.43014000       8.29049000      10.12500000       0.00595476       0.00862424       0.00141869
C       -3.31371000      10.58620000      10.12500000       0.00685114       0.00441725       0.00220088
C        2.65100000       1.02034000      10.12500000       0.14311983      -0.11591238       0.02513843
C        1.76735000       3.31617000      10.12500000       0.19371221       0.07488604      -0.03525082
C        0.88357000       5.61200000      10.12500000       0.03023414       0.18247636       0.02513127
C       -0.00007000       7.90783000      10.12500000       0.00776161       0.00140972       0.00217533
C       -0.88371000      10.20366000      10.12500000       0.00102597      -0.00337975      -0.00030220
C        5.08106000       0.63768000      10.12500000      -0.00346863      -0.00664313       0.00218362
C        4.19742000       2.93351000      10.12500000      -0.00327139       0.02317211      -0.00519367
C        3.31378000       5.22934000      10.12500000       0.00990897      -0.01828351      -0.00519433
C        2.43000000       7.52517000      10.12500000      -0.00724260       0.00466803       0.00219115
C        1.54636000       9.82101000      10.12500000       0.00147011      -0.00179229      -0.00030530
C        7.51106000       0.25514000      10.12500000       0.00349983      -0.00022013      -0.00030270
C        6.62749000       2.55086000      10.12500000       0.00747210      -0.00726596       0.00142341
C        5.74385000       4.84669000      10.12500000       0.00789178       0.00168802       0.00123700
C        4.86007000       7.14252000      10.12500000      -0.00020776       0.01164616       0.00140941
C        3.97643000       9.43835000      10.12500000      -0.01120506      -0.00345502       0.00141772
C        3.09278000      11.73418000      10.12500000      -0.00515871       0.00634074       0.00217596
C        9.05749000       2.16832000      10.12500000       0.00243570      -0.01126501       0.00219564
C        8.17392000       4.46403000      10.12500000      -0.00924878      -0.00567992       0.00141445
C        7.29014000       6.75986000      10.12500000      -0.00013478       0.00053266       0.00002588
C        6.40649000       9.05569000      10.12500000      -0.00212079      -0.00785020       0.00123573
C        5.52285000      11.35152000      10.12500000       0.02177401      -0.00855357      -0.00519216
C       11.48756000       1.78566000      10.12500000      -0.17242704      -0.06607236       0.02513697
C       10.60392000       4.08149000      10.12500000       0.01260052       0.01875096      -0.00519441
C        9.72014000       6.37732000      10.12500000      -0.00228108       0.00146273       0.00123959
Li       0.44186000       2.80600000      12.00000000      -0.00000125      -0.00001343      -0.00000000
125
Lattice="13.696700096 0.0 0.0 -6.848350048 11.861690231 0.0 0.0 0.0 24.0" Properties=species:S:1:pos:R:3:forces:R:3 energy=-1154.035077163048 stress="-0.0679025569964115 3.5594526576707324e-06 -2.247821260535664e-18 3.5594526576707324e-06 -0.06790111758919182 4.5328250511471076e-18 -2.247821260535664e-18 4.5328250511471076e-18 -6.223180524498936e-05" free_energy=-1154.035077163048 pbc="T T T"
C        0.00000000       0.00000000      13.87320444      -0.02883518      -0.18274240       0.00923044
C       -0.88364000       2.29583000      13.87751762      -0.19306549      -0.07424339       0.02124004
C       -1.76729000       4.59166000      13.87320432      -0.14330016       0.11572499       0.00922587
C       -2.65106000       6.88749000      13.87484306      -0.00774759      -0.00442650       0.00160791
C       -3.53464000       9.18320000      13.87489866      -0.00571043      -0.00846019      -0.00133334
C       -4.41828000      11.47903000      13.87537088       0.01854441       0.01400269      -0.00864415
C        1.54643000       1.91317000      13.87751778       0.16062192      -0.12982038       0.02124033
C        0.66278000       4.20900000      13.87751778       0.03157107       0.20359760       0.02124289
C       -0.22100000       6.50483000      13.87537084       0.02337567       0.00206225      -0.00866977
C       -1.10464000       8.80066000      13.87489889      -0.00911658       0.00399287      -0.00042931
C       -1.98821000      11.09637000      13.87491162       0.00258833      -0.00328883      -0.00286917
C        3.97649000       1.53051000      13.87537103      -0.00944714      -0.02092616      -0.00867470
C        3.09285000       3.82634000      13.87320453       0.17286398       0.06669740       0.00923217
C        2.20907000       6.12217000      13.87537117      -0.01822182       0.00768725      -0.00863818
C        1.32543000       8.41800000      13.87491174       0.00228785       0.00814208      -0.00286047
C        0.44179000      10.71383000      13.87499798       0.00070652      -0.00050129       0.00088855
C        6.40656000       1.14786000      13.87489926       0.00591867       0.00868898      -0.00043339
C        5.52292000       3.44369000      13.87484329       0.00063204       0.00839359       0.00160929
C        4.63928000       5.73952000      13.87484467       0.00348576      -0.00641879       0.00163825
C        3.75550000       8.03535000      13.87489857       0.01083692       0.00274166      -0.00132772
C        2.87186000      10.33118000      13.87489934       0.00086156      -0.01100941      -0.00042712
C        8.83656000       0.76532000      13.87491128      -0.00724312      -0.00266637      -0.00286410
C        7.95299000       3.06103000      13.87489861      -0.01150577       0.01038216      -0.00133252
C        7.06935000       5.35686000      13.87502176      -0.00101650      -0.00259858      -0.00130510
C        6.18557000       7.65269000      13.87502167      -0.00169383       0.00144159      -0.00130280
C        5.30192000       9.94852000      13.87484318       0.00732790      -0.00482911       0.00161174
C       11.26663000       0.38266000      13.87537108      -0.01306216       0.01902496      -0.00867112
C       10.38299000       2.67849000      13.87537038       0.00366212      -0.02361596      -0.00864172
C        9.49941000       4.97420000      13.87484441      -0.00017489       0.01188405       0.00163487
C        8.61564000       7.27003000      13.87502171      -0.00065711       0.00292245      -0.00130593
C        7.73199000       9.56586000      13.87484455      -0.00750391      -0.00152825       0.00163634
C       -4.86014000       8.67303000      13.87489888       0.00940417      -0.00393174      -0.00042882
C       -5.74378000      10.96886000      13.87537106      -0.02308828      -0.00176156      -0.00867182
C        0.22093000       1.40300000      13.87751783      -0.03214429      -0.20426306       0.02123851
C       -0.66271000       3.69883000      13.87751776      -0.16121819       0.12995422       0.02123824
C       -1.54649000       5.99466000      13.87537048      -0.01810616      -0.01372932      -0.00864452
C       -2.43014000       8.29049000      13.87489867       0.00593834       0.00866016      -0.00133162
C       -3.31371000      10.58620000      13.87484279       0.00689481       0.00432019       0.00161077
C        2.65100000       1.02034000      13.87320440       0.14354876      -0.11625881       0.00922918
C        1.76735000       3.31617000      13.87751792       0.19317791       0.07468053       0.02123822
C        0.88357000       5.61200000      13.87320491       0.03031953       0.18302069       0.00922964
C       -0.00007000       7.90783000      13.87484462       0.00773429       0.00151392       0.00163537
C       -0.88371000      10.20366000      13.87502159       0.00100572      -0.00337853      -0.00130587
C        5.08106000       0.63768000      13.87484403      -0.00336474      -0.00667159       0.00163780
C        4.19742000       2.93351000      13.87537098      -0.00292687       0.02299336      -0.00864025
C        3.31378000       5.22934000      13.87537102       0.01004420      -0.01792038      -0.00867133
C        2.43000000       7.52517000      13.87484349      -0.00718040       0.00475429       0.00161293
C        1.54636000       9.82101000      13.87502181       0.00147918      -0.00181038      -0.00130378
C        7.51106000       0.25514000      13.87502162       0.00351098      -0.00020321      -0.00130551
C        6.62749000       2.55086000      13.87489833       0.00751146      -0.00726974      -0.00132940
C        5.74385000       4.84669000      13.87491164       0.00791709       0.00170308      -0.00286182
C        4.86007000       7.14252000      13.87489933      -0.00019719       0.01166631      -0.00042847
C        3.97643000       9.43835000      13.87489873      -0.01122799      -0.00348720      -0.00132970
C        3.09278000      11.73418000      13.87484457      -0.00523525       0.00626502       0.00163647
C        9.05749000       2.16832000      13.87484317       0.00232969      -0.01125426       0.00160620
C        8.17392000       4.46403000      13.87489897      -0.00927158      -0.00568084      -0.00042931
C        7.29014000       6.75986000      13.87499815      -0.00013476       0.00053265       0.00088961
C        6.40649000       9.05569000      13.87491173      -0.00212040      -0.00787963      -0.00286379
C        5.52285000      11.35152000      13.87537087       0.02144705      -0.00876248      -0.00864142
C       11.48756000       1.78566000      13.87320450      -0.17294139      -0.06627068       0.00922572
C       10.60392000       4.08149000      13.87537103       0.01221851       0.01868673      -0.00867460
C        9.72014000       6.37732000      13.87491146      -0.00230681       0.00147722      -0.00286438
C        0.00000000       0.00000000      10.12679556      -0.02883518      -0.18274240      -0.00923044
C       -0.88364000       2.29583000      10.12248238      -0.19306549      -0.07424339      -0.02124004
C       -1.76729000       4.59166000      10.12679568      -0.14330016       0.11572499      -0.00922587
C       -2.65106000       6.88749000      10.12515694      -0.00774759      -0.00442650      -0.00160791
C       -3.53464000       9.18320000      10.12510134      -0.00571043      -0.00846019       0.00133334
C       -4.41828000      11.47903000      10.12462912       0.01854441       0.01400269       0.00864415
C        1.54643000       1.91317000      10.12248222       0.16062192      -0.12982038      -0.02124033
C        0.66278000       4.20900000      10.12248222       0.03157107       0.20359760      -0.02124289
C       -0.22100000       6.50483000      10.12462916       0.02337567       0.00206225       0.00866977
C       -1.10464000       8.80066000      10.12510111      -0.00911658       0.00399287       0.00042931
C       -1.98821000      11.09637000      10.12508838       0.00258833      -0.00328883       0.00286917
C        3.97649000       1.53051000      10.12462897      -0.00944714      -0.02092616       0.00867470
C        3.09285000       3.82634000      10.12679547       0.17286398       0.06669740      -0.00923217
C        2.20907000       6.12217000      10.12462883      -0.01822182       0.00768725       0.00863818
C        1.32543000       8.41800000      10.12508826       0.00228785       0.00814208       0.00286047
C        0.44179000      10.71383000      10.12500202       0.00070652      -0.00050129      -0.00088855
C        6.40656000       1.14786000      10.12510074       0.00591867       0.00868898       0.00043339
C        5.52292000       3.44369000      10.12515671       0.00063204       0.00839359      -0.00160929
C        4.63928000       5.73952000      10.12515533       0.00348576      -0.00641879      -0.00163825
C        3.75550000       8.03535000      10.12510143       0.01083692       0.00274166       0.00132772
C        2.87186000      10.33118000      10.12510066       0.00086156      -0.01100941       0.00042712
C        8.83656000       0.76532000      10.12508872      -0.00724312      -0.00266637       0.00286410
C        7.95299000       3.06103000      10.12510139      -0.01150577       0.01038216       0.00133252
C        7.06935000       5.35686000      10.12497824      -0.00101650      -0.00259858       0.00130510
C        6.18557000       7.65269000      10.12497833      -0.00169383       0.00144159       0.00130280
C        5.30192000       9.94852000      10.12515682       0.00732790      -0.00482911      -0.00161174
C       11.26663000       0.38266000      10.12462892      -0.01306216       0.01902496       0.00867112
C       10.38299000       2.67849000      10.12462962       0.00366212      -0.02361596       0.00864172
C        9.49941000       4.97420000      10.12515559      -0.00017489       0.01188405      -0.00163487
C        8.61564000       7.27003000      10.12497829      -0.00065711       0.00292245       0.00130593
C        7.73199000       9.56586000      10.12515545      -0.00750391      -0.00152825      -0.00163634
C       -4.86014000       8.67303000      10.12510112       0.00940417      -0.00393174       0.00042882
C       -5.74378000      10.96886000      10.12462894      -0.02308828      -0.00176156       0.00867182
C        0.22093000       1.40300000      10.12248217      -0.03214429      -0.20426306      -0.02123851
C       -0.66271000       3.69883000      10.12248224      -0.16121819       0.12995422      -0.02123824
C       -1.54649000       5.99466000      10.12462952      -0.01810616      -0.01372932       0.00864452
C       -2.43014000       8.29049000      10.12510133       0.00593834       0.00866016       0.00133162
C       -3.31371000      10.58620000      10.12515721       0.00689481       0.00432019      -0.00161077
C        2.65100000       1.02034000      10.12679560       0.14354876      -0.11625881      -0.00922918
C        1.76735000       3.31617000      10.12248208       0.19317791       0.07468053      -0.02123822
C        0.88357000       5.61200000      10.12679509       0.03031953       0.18302069      -0.00922964
C       -0.00007000       7.90783000      10.12515538       0.00773429       0.00151392      -0.00163537
C       -0.88371000      10.20366000      10.12497841       0.00100572      -0.00337853       0.00130587
C        5.08106000       0.63768000      10.12515597      -0.00336474      -0.00667159      -0.00163780
C        4.19742000       2.93351000      10.12462902      -0.00292687       0.02299336       0.00864025
C        3.31378000       5.22934000      10.12462898       0.01004420      -0.01792038       0.00867133
C        2.43000000       7.52517000      10.12515651      -0.00718040       0.00475429      -0.00161293
C        1.54636000       9.82101000      10.12497819       0.00147918      -0.00181038       0.00130378
C        7.51106000       0.25514000      10.12497838       0.00351098      -0.00020321       0.00130551
C        6.62749000       2.55086000      10.12510167       0.00751146      -0.00726974       0.00132940
C        5.74385000       4.84669000      10.12508836       0.00791709       0.00170308       0.00286182
C        4.86007000       7.14252000      10.12510067      -0.00019719       0.01166631       0.00042847
C        3.97643000       9.43835000      10.12510127      -0.01122799      -0.00348720       0.00132970
C        3.09278000      11.73418000      10.12515543      -0.00523525       0.00626502      -0.00163647
C        9.05749000       2.16832000      10.12515683       0.00232969      -0.01125426      -0.00160620
C        8.17392000       4.46403000      10.12510103      -0.00927158      -0.00568084       0.00042931
C        7.29014000       6.75986000      10.12500185      -0.00013476       0.00053265      -0.00088961
C        6.40649000       9.05569000      10.12508827      -0.00212040      -0.00787963       0.00286379
C        5.52285000      11.35152000      10.12462913       0.02144705      -0.00876248       0.00864142
C       11.48756000       1.78566000      10.12679550      -0.17294139      -0.06627068      -0.00922572
C       10.60392000       4.08149000      10.12462897       0.01221851       0.01868673       0.00867460
C        9.72014000       6.37732000      10.12508854      -0.00230681       0.00147722       0.00286438
Li       0.44185991       2.80599904      12.00000000      -0.00000078      -0.00001174      -0.00000000
125
Lattice="13.696700096 0.0 0.0 -6.848350048 11.861690231 0.0 0.0 0.0 24.0" Properties=species:S:1:pos:R:3:forces:R:3 energy=-1154.0360835103547 stress="-0.06791108773728974 3.559297163020847e-06 -2.3034632878636694e-18 3.559297163020847e-06 -0.06790964831737584 -2.447193169240772e-18 -2.3034632878636694e-18 -2.447193169240772e-18 -4.3062492727880864e-05" free_energy=-1154.0360835103547 pbc="T T T"
C        0.00000000       0.00000000      13.87444173      -0.02885882      -0.18289837      -0.00176512
C       -0.88364000       2.29583000      13.88329305      -0.19265154      -0.07408431       0.01088789
C       -1.76729000       4.59166000      13.87444056      -0.14342274       0.11582276      -0.00176246
C       -2.65106000       6.88749000      13.87512722      -0.00778446      -0.00439645      -0.01949287
C       -3.53464000       9.18320000      13.87456108      -0.00561701      -0.00841410       0.00181984
C       -4.41828000      11.47903000      13.87363499       0.01891425       0.01339411       0.01208304
C        1.54643000       1.91317000      13.88329334       0.16027796      -0.12954091       0.01089095
C        0.66278000       4.20900000      13.88329390       0.03150107       0.20315771       0.01088736
C       -0.22100000       6.50483000      13.87362930       0.02323937       0.00276156       0.01193456
C       -1.10464000       8.80066000      13.87476004      -0.00899681       0.00403440      -0.00031342
C       -1.98821000      11.09637000      13.87424230       0.00262359      -0.00331452       0.01079986
C        3.97649000       1.53051000      13.87362849      -0.00877365      -0.02115774       0.01194856
C        3.09285000       3.82634000      13.87444225       0.17300991       0.06675437      -0.00176786
C        2.20907000       6.12217000      13.87363671      -0.01787883       0.00831190       0.01207548
C        1.32543000       8.41800000      13.87424439       0.00229255       0.00818557       0.01078934
C        0.44179000      10.71383000      13.87519231       0.00070646      -0.00050128      -0.00480181
C        6.40656000       1.14786000      13.87475968       0.00589464       0.00856453      -0.00030391
C        5.52292000       3.44369000      13.87512786       0.00067647       0.00841039      -0.01948598
C        4.63928000       5.73952000      13.87513621       0.00353397      -0.00639570      -0.01764362
C        3.75550000       8.03535000      13.87456219       0.01075022       0.00279957       0.00181599
C        2.87186000      10.33118000      13.87476117       0.00076574      -0.01092648      -0.00031330
C        8.83656000       0.76532000      13.87424293      -0.00728318      -0.00268400       0.01078920
C        7.95299000       3.06103000      13.87456119      -0.01151248       0.01027799       0.00181425
C        7.06935000       5.35686000      13.87474460      -0.00099220      -0.00257449       0.00073235