125
Lattice="13.696700096 0.0 0.0 -6.848350048 11.861690231 0.0 0.0 0.0 24.0" Properties=species:S:1:pos:R:3:forces:R:3 energy=-1153.055523731185 stress="-0.06591128173360146 3.6512775014748896e-06 5.607828738563273e-10 3.6512775014748896e-06 -0.06590990911359364 1.07937106945663e-09 5.607828738563273e-10 1.07937106945663e-09 -0.004115936614552478" free_energy=-1153.055523731185 pbc="T T T"
C        0.00000000       0.00000000      13.67500000      -0.04938989      -0.31330519       0.18880852
C       -0.88364000       2.29583000      13.67500000      -0.24674329       0.19940608       0.18879734
C       -1.76729000       4.59166000      13.67500000      -0.00212206      -0.02046290       0.03273962
C       -2.65106000       6.88749000      13.67500000      -0.00103327      -0.00086024       0.03616939
C       -3.53464000       9.18320000      13.67500000      -0.01336128      -0.01339418       0.03649308
C       -4.41828000      11.47903000      13.67500000       0.05544504      -0.04478950       0.06128870
C        1.54643000       1.91317000      13.67500000       0.29578070       0.11408591       0.18880529
C        0.66278000       4.20900000      13.67500000       0.01042219       0.06940439       0.06129252
C       -0.22100000       6.50483000      13.67500000      -0.01736674       0.00522116       0.03654277
C       -1.10464000       8.80066000      13.67500000       0.00213937      -0.00300009       0.03708682
C       -1.98821000      11.09637000      13.67500000       0.01005978       0.01552048       0.03652757
C        3.97649000       1.53051000      13.67500000      -0.01534227       0.01224092       0.03274294
C        3.09285000       3.82634000      13.67500000      -0.00353376      -0.01953344       0.03275295
C        2.20907000       6.12217000      13.67500000       0.02234678      -0.00199216       0.03652372
C        1.32543000       8.41800000      13.67500000       0.00134875       0.00261192       0.03709720
C        0.44179000      10.71383000      13.67500000      -0.00200929      -0.00046790       0.03708789
C        6.40656000       1.14786000      13.67500000      -0.00272339       0.00338173       0.03616129
C        5.52292000       3.44369000      13.67500000      -0.01915774      -0.00731494       0.03708073
C        4.63928000       5.73952000      13.67500000      -0.00269174      -0.00045248       0.03643235
C        3.75550000       8.03535000      13.67500000       0.00047876      -0.00131766       0.03618457
C        2.87186000      10.33118000      13.67500000       0.00441318      -0.01790621       0.03654633
C        8.83656000       0.76532000      13.67500000      -0.00808142       0.01619389       0.03650331
C        7.95299000       3.06103000      13.67500000      -0.00262456       0.00161790       0.03641047
C        7.06935000       5.35686000      13.67500000      -0.00055480      -0.00049953       0.03755755
C        6.18557000       7.65269000      13.67500000       0.00331167       0.02015607       0.03708299
C        5.30192000       9.94852000      13.67500000       0.01881140       0.00759982       0.03274623
C       11.26663000       0.38266000      13.67500000      -0.06619318      -0.02553512       0.06129255
C       10.38299000       2.67849000      13.67500000       0.01959820       0.00596604       0.03274706
C        9.49941000       4.97420000      13.67500000       0.01281988      -0.00851403       0.03706829
C        8.61564000       7.27003000      13.67500000      -0.00224589       0.00327478       0.03641284
C        7.73199000       9.56586000      13.67500000      -0.01495834       0.01297547       0.03274724
C       -4.86014000       8.67303000      13.67500000       0.02240891      -0.00832846       0.02873541
C       -5.74378000      10.96886000      13.67500000       0.10586660      -0.11517527       0.04861189
C        0.22093000       1.40300000      13.67500000       0.00001977       0.00000404       3.83152990
C       -0.66271000       3.69883000      13.67500000       0.00087607       0.15645896       0.04860926
C       -1.54649000       5.99466000      13.67500000       0.01093426       0.02162808       0.02872366
C       -2.43014000       8.29049000      13.67500000       0.00053239      -0.00291434       0.03208079
C       -3.31371000      10.58620000      13.67500000      -0.01108910       0.00896705       0.02227400
C        2.65100000       1.02034000      13.67500000       0.13456733      -0.07933569       0.04861328
C        1.76735000       3.31617000      13.67500000       0.04705349       0.14973958       0.04861592
C        0.88357000       5.61200000      13.67500000      -0.00052778      -0.01273191       0.02227915
C       -0.00007000       7.90783000      13.67500000      -0.00221246      -0.00244362       0.03238017
C       -0.88371000      10.20366000      13.67500000       0.00190890       0.00039464       0.03238379
C        5.08106000       0.63768000      13.67500000       0.01232533      -0.01912008       0.02873084
C        4.19742000       2.93351000      13.67500000       0.02356590       0.00885072       0.02915839
C        3.31378000       5.22934000      13.67500000      -0.00679642       0.02557502       0.02874358
C        2.43000000       7.52517000      13.67500000       0.00162153      -0.00228898       0.03208655
C        1.54636000       9.82101000      13.67500000       0.00319433      -0.00090929       0.03238127
C        7.51106000       0.25514000      13.67500000       0.00416584       0.00025186       0.03207716
C        6.62749000       2.55086000      13.67500000       0.00518300      -0.00480931       0.03160286
C        5.74385000       4.84669000      13.67500000       0.00104682       0.00609551       0.03189614
C        4.86007000       7.14252000      13.67500000      -0.00693292      -0.00166805       0.03160771
C        3.97643000       9.43835000      13.67500000      -0.02395142      -0.00151826       0.02873755
C        3.09278000      11.73418000      13.67500000       0.01220377       0.00489279       0.02226815
C        9.05749000       2.16832000      13.67500000      -0.01625666      -0.01808931       0.02873220
C        8.17392000       4.46403000      13.67500000      -0.00632297      -0.00157003       0.03188408
C        7.29014000       6.75986000      13.67500000       0.00473903      -0.00358102       0.03189190
C        6.40649000       9.05569000      13.67500000      -0.00387856      -0.02466884       0.02915491
C        5.52285000      11.35152000      13.67500000      -0.13614416      -0.07709799       0.04861411
C       11.48756000       1.78566000      13.67500000      -0.15304686      -0.03389312       0.04860167
C       10.60392000       4.08149000      13.67500000      -0.01700539       0.01361064       0.02914756
C        9.72014000       6.37732000      13.67500000       0.00510646       0.00336422       0.03160054
C        0.00000000       0.00000000      10.32500000      -0.04760835      -0.30268006      -0.22554865
C       -0.88364000       2.29583000      10.32500000      -0.23861842       0.19280166      -0.22553870
C       -1.76729000       4.59166000      10.32500000      -0.01902804      -0.02056972      -0.04099088
C       -2.65106000       6.88749000      10.32500000       0.00707947       0.00679185      -0.03583601
C       -3.53464000       9.18320000      10.32500000       0.00301520       0.00936713      -0.03551064
C       -4.41828000      11.47903000      10.32500000       0.15378637      -0.12431935      -0.00784331
C        1.54643000       1.91317000      10.32500000       0.28571148       0.11005345      -0.22554799
C        0.66278000       4.20900000      10.32500000       0.03084362       0.19541216      -0.00785001
C       -0.22100000       6.50483000      10.32500000       0.00846431      -0.00482207      -0.03556040
C       -1.10464000       8.80066000      10.32500000       0.00051839      -0.00293156      -0.03757659
C       -1.98821000      11.09637000      10.32500000      -0.00929920      -0.00345889      -0.03555972
C        3.97649000       1.53051000      10.32500000      -0.00484609       0.02814291      -0.04100927
C        3.09285000       3.82634000      10.32500000       0.01525293      -0.02355657      -0.04101758
C        2.20907000       6.12217000      10.32500000      -0.00773107      -0.00088743      -0.03551895
C        1.32543000       8.41800000      10.32500000       0.00173492      -0.00199721      -0.03759547
C        0.44179000      10.71383000      10.32500000       0.00412650       0.00014953      -0.03757772
C        6.40656000       1.14786000      10.32500000       0.00691634      -0.00858724      -0.03584374
C        5.52292000       3.44369000      10.32500000       0.00714473       0.00122952      -0.03569914
C        4.63928000       5.73952000      10.32500000      -0.00588190       0.01263830      -0.03584624
C        3.75550000       8.03535000      10.32500000      -0.01205373      -0.00231223      -0.03585431
C        2.87186000      10.33118000      10.32500000       0.00013272       0.00955659      -0.03556313
C        8.83656000       0.76532000      10.32500000       0.00885598      -0.01017439      -0.03549671
C        7.95299000       3.06103000      10.32500000      -0.00948105      -0.00738125      -0.03582304
C        7.06935000       5.35686000      10.32500000      -0.00031866      -0.00024794      -0.03720308
C        6.18557000       7.65269000      10.32500000      -0.00179101      -0.00603564      -0.03569566
C        5.30192000       9.94852000      10.32500000       0.02692468      -0.00980914      -0.04101050
C       11.26663000       0.38266000      10.32500000      -0.18485687      -0.07088659      -0.00784355
C       10.38299000       2.67849000      10.32500000       0.01633535       0.02239812      -0.04099565
C        9.49941000       4.97420000      10.32500000      -0.00463097       0.00620724      -0.03568555
C        8.61564000       7.27003000      10.32500000       0.01067411      -0.00290310      -0.03582700
C        7.73199000       9.56586000      10.32500000      -0.02829841      -0.00106512      -0.04101139
C       -2.87179000       5.48437000      10.32500000      -0.00677028      -0.00426323      -0.03088331
C       -3.75557000       7.78020000      10.32500000      -0.00642021      -0.00899473      -0.03110992
C       -4.63921000      10.07603000      10.32500000       0.02209156       0.01830861      -0.03735058
C        1.32550000       0.51017000      10.32500000       0.23268322      -0.18813491      -0.21238470
C        0.44186000       2.80600000      10.32500000       0.04634574       0.29560500      -0.21238012
C       -0.44179000       5.10183000      10.32500000       0.02872234       0.00043170      -0.03736253
C       -1.32557000       7.39766000      10.32500000      -0.01092257       0.00285759      -0.03117091
C       -2.20914000       9.69337000      10.32500000       0.00152816      -0.00267445      -0.03083117
C        3.75557000       0.12751000      10.32500000      -0.01323483      -0.02536325      -0.03735448
C        2.87192000       2.42334000      10.32500000       0.18523403       0.07142298      -0.00537305
C        1.98828000       4.71917000      10.32500000      -0.02764751       0.00887239      -0.03736020
C        1.10450000       7.01500000      10.32500000       0.00246511       0.00685920      -0.03084115
C        0.22086000       9.31083000      10.32500000       0.00078996      -0.00062918      -0.03233811
C       -0.66271000      11.60655000      10.32500000       0.00546994       0.01038377      -0.03117132
C        5.30199000       2.04069000      10.32500000      -0.00575005       0.00715896      -0.03087859
C        4.41835000       4.33652000      10.32500000      -0.00076859      -0.00936810      -0.03094691
C        3.53457000       6.63235000      10.32500000       0.01493538       0.00086442      -0.03112286
C        2.65093000       8.92818000      10.32500000       0.00243103      -0.01151344      -0.03118153
C        1.76729000      11.22401000      10.32500000      -0.00632190      -0.00202467      -0.03083242
C        7.73206000       1.65803000      10.32500000      -0.01080011       0.01192020      -0.03110993
C        6.84842000       3.95386000      10.32500000      -0.00094578      -0.00274020      -0.03259785
C        5.96478000       6.24969000      10.32500000      -0.00330482       0.00191260      -0.03260986
C        5.08100000       8.54552000      10.32500000       0.00909561       0.00100808      -0.03089060
C        4.19735000      10.84135000      10.32500000      -0.01479205       0.02420075      -0.03736574
C       10.16206000       1.27549000      10.32500000       0.00592722      -0.02872768      -0.03735496
C        9.27849000       3.57120000      10.32500000       0.00538686       0.00654175      -0.03094369
C        8.39484000       5.86703000      10.32500000       0.00262257      -0.00007150      -0.03259706
C        7.51106000       8.16286000      10.32500000      -0.00740656       0.00550677      -0.03093947
C        6.62742000      10.45869000      10.32500000      -0.03085942      -0.19583052      -0.00537023
C       12.59213000       0.89283000      10.32500000      -0.27923760      -0.10755335      -0.21237935
C       11.70849000       3.18866000      10.32500000      -0.15362067       0.12391453      -0.00537280
Li       0.22093000       1.40300000      12.00000000       0.00000307      -0.00000353      -3.37359850
125
Lattice="13.696700096 0.0 0.0 -6.848350048 11.861690231 0.0 0.0 0.0 24.0" Properties=species:S:1:pos:R:3:forces:R:3 energy=-1153.4591577227109 stress="-0.06593647805545444 3.652324141090533e-06 1.4834696297501894e-09 3.652324141090533e-06 -0.06593510800886096 -1.2943289472999591e-09 1.4834696297501894e-09 -1.2943289472999591e-09 -0.003160246295184549" free_energy=-1153.4591577227109 pbc="T T T"
C        0.00000000       0.00000000      13.68109251      -0.03681826      -0.23347728       0.74587553
C       -0.88364000       2.29583000      13.68109215      -0.18389444       0.14860885       0.74586000
C       -1.76729000       4.59166000      13.67605645      -0.00931098      -0.01691846      -0.01916875
C       -2.65106000       6.88749000      13.67616712      -0.00232795      -0.00102948       0.03201747
C       -3.53464000       9.18320000      13.67617757      -0.00835117      -0.01429672       0.02837592
C       -4.41828000      11.47903000      13.67697768       0.04956229      -0.04003068       0.09593537
C        1.54643000       1.91317000      13.68109240       0.22037074       0.08505870       0.74587826
C        0.66278000       4.20900000      13.67697780       0.00924168       0.06193227       0.09594154
C       -0.22100000       6.50483000      13.67617917      -0.01429194       0.00926584       0.02841950
C       -1.10464000       8.80066000      13.67619672       0.00204992      -0.00249650       0.03463916
C       -1.98821000      11.09637000      13.67617868       0.01202235       0.01083577       0.02841271
C        3.97649000       1.53051000      13.67605656      -0.00867910       0.01669881      -0.01916685
C        3.09285000       3.82634000      13.67605688       0.00442657      -0.01837062      -0.01915016
C        2.20907000       6.12217000      13.67617855       0.02062244       0.00279886       0.02839442
C        1.32543000       8.41800000      13.67619706       0.00095732       0.00228315       0.03464525
C        0.44179000      10.71383000      13.67619676      -0.00152829      -0.00064252       0.03463925
C        6.40656000       1.14786000      13.67616686      -0.00222187       0.00458792       0.03201375
C        5.52292000       3.44369000      13.67619653      -0.01468554      -0.00557846       0.03333894
C        4.63928000       5.73952000      13.67617561      -0.00114639      -0.00106031       0.03212811
C        3.75550000       8.03535000      13.67616761       0.00127306      -0.00235446       0.03202931
C        2.87186000      10.33118000      13.67617928      -0.00062586      -0.01726393       0.02842225
C        8.83656000       0.76532000      13.67617790      -0.01136932       0.01230694       0.02837865
C        7.95299000       3.06103000      13.67617490      -0.00286862       0.00325897       0.03211199
C        7.06935000       5.35686000      13.67621191      -0.00055491      -0.00049947       0.03485744
C        6.18557000       7.65269000      13.67619660       0.00257937       0.01541492       0.03333959
C        5.30192000       9.94852000      13.67605666       0.01933918      -0.00040017      -0.01916401
C       11.26663000       0.38266000      13.67697780      -0.05913090      -0.02282042       0.09593577
C       10.38299000       2.67849000      13.67605669       0.01460793       0.01227878      -0.01915579
C        9.49941000       4.97420000      13.67619613       0.00907916      -0.00550975       0.03332820
C        8.61564000       7.27003000      13.67617498      -0.00354498       0.00224004       0.03211471
C        7.73199000       9.56586000      13.67605669      -0.01793085       0.00550015      -0.01915425
C       -4.86014000       8.67303000      13.67592724       0.01915789      -0.00511775       0.03238416
C       -5.74378000      10.96886000      13.67656862       0.09791330      -0.11772538       0.01542794
C        0.22093000       1.40300000      13.79863653       0.00001864       0.00000044      -0.17795519
C       -0.66271000       3.69883000      13.67656853      -0.00673390       0.15302352       0.01542748
C       -1.54649000       5.99466000      13.67592686       0.01070280       0.01709178       0.03234937
C       -2.43014000       8.29049000      13.67603519       0.00018752      -0.00273809       0.03421360
C       -3.31371000      10.58620000      13.67571874      -0.00472058       0.00381296       0.03576142
C        2.65100000       1.02034000      13.67656866       0.13539461      -0.07102576       0.01543179
C        1.76735000       3.31617000      13.67656875       0.05323999       0.14412284       0.01543010
C        0.88357000       5.61200000      13.67571891       0.00074756      -0.00464071       0.03577254
C       -0.00007000       7.90783000      13.67604485      -0.00189416      -0.00297424       0.03442301
C       -0.88371000      10.20366000      13.67604497       0.00129046       0.00038412       0.03441988
C        5.08106000       0.63768000      13.67592709       0.00851381      -0.01665203       0.03235175
C        4.19742000       2.93351000      13.67594089       0.02364698       0.00890765       0.03954574
C        3.31378000       5.22934000      13.67592750      -0.00795119       0.02115305       0.03239914
C        2.43000000       7.52517000      13.67603537       0.00164091      -0.00267661       0.03422728
C        1.54636000       9.82101000      13.67604488       0.00349480      -0.00036824       0.03442429
C        7.51106000       0.25514000      13.67603507       0.00449073       0.00046288       0.03421184
C        6.62749000       2.55086000      13.67601977       0.00477264      -0.00453455       0.03403382
C        5.74385000       4.84669000      13.67602923       0.00038525       0.00562370       0.03435821
C        4.86007000       7.14252000      13.67601992      -0.00648949      -0.00145038       0.03404479
C        3.97643000       9.43835000      13.67592731      -0.01990786       0.00054864       0.03236308
C        3.09278000      11.73418000      13.67571855       0.00455653       0.00195456       0.03576358
C        9.05749000       2.16832000      13.67592714      -0.01185294      -0.01687856       0.03238299
C        8.17392000       4.46403000      13.67602884      -0.00558259      -0.00190772       0.03434522
C        7.29014000       6.75986000      13.67602909       0.00466180      -0.00277200       0.03435278
C        6.40649000       9.05569000      13.67594078      -0.00386959      -0.02476785       0.03954326
C        5.52285000      11.35152000      13.67656869      -0.12936280      -0.08197016       0.01543359
C       11.48756000       1.78566000      13.67656829      -0.15127877      -0.02573253       0.01542122
C       10.60392000       4.08149000      13.67594054      -0.01709687       0.01365391       0.03953402
C        9.72014000       6.37732000      13.67601969       0.00507287       0.00287263       0.03403206
C        0.00000000       0.00000000      10.31772195      -0.05916856      -0.37608566      -0.28190335
C       -0.88364000       2.29583000      10.31772227      -0.29640812       0.23951371      -0.28189685
C       -1.76729000       4.59166000      10.32367730      -0.01656655      -0.02934468      -0.03325427
C       -2.65106000       6.88749000      10.32384364       0.00727814       0.00683267      -0.03334446
C       -3.53464000       9.18320000      10.32385414       0.00325005       0.00953993      -0.03286169
C       -4.41828000      11.47903000      10.32474691       0.15604060      -0.12613912      -0.03569546
C        1.54643000       1.91317000      10.31772197       0.35506145       0.13674617      -0.28190361
C        0.66278000       4.20900000      10.32474669       0.03129272       0.19827279      -0.03570118
C       -0.22100000       6.50483000      10.32385253       0.00868913      -0.00492016      -0.03292136
C       -1.10464000       8.80066000      10.32378747      -0.00000231      -0.00292961      -0.03403146
C       -1.98821000      11.09637000      10.32385255      -0.00949562      -0.00360466      -0.03291792
C        3.97649000       1.53051000      10.32367670      -0.01367891       0.03039770      -0.03326197
C        3.09285000       3.82634000      10.32367644       0.01021740      -0.03114573      -0.03326255
C        2.20907000       6.12217000      10.32385387      -0.00799741      -0.00077144      -0.03287112
C        1.32543000       8.41800000      10.32378686       0.00199371      -0.00244822      -0.03404509
C        0.44179000      10.71383000      10.32378743       0.00438700       0.00059959      -0.03403243
C        6.40656000       1.14786000      10.32384339       0.00685217      -0.00878029      -0.03334770
C        5.52292000       3.44369000      10.32384805       0.00713173       0.00108211      -0.03278698
C        4.63928000       5.73952000      10.32384331      -0.00641322       0.01263059      -0.03380844
C        3.75550000       8.03535000      10.32384305      -0.01218850      -0.00215987      -0.03335949
C        2.87186000      10.33118000      10.32385244       0.00010506       0.00979948      -0.03292355
C        8.83656000       0.76532000      10.32385459       0.00888896      -0.01046420      -0.03285530
C        7.95299000       3.06103000      10.32384406      -0.00920796      -0.00783788      -0.03379104
C        7.06935000       5.35686000      10.32379952      -0.00031854      -0.00024800      -0.03493571
C        6.18557000       7.65269000      10.32384817      -0.00191186      -0.00595073      -0.03278775
C        5.30192000       9.94852000      10.32367667       0.03329433      -0.00328715      -0.03326581
C       11.26663000       0.38266000      10.32474690      -0.18755859      -0.07192811      -0.03569700
C       10.38299000       2.67849000      10.32367714       0.02542223       0.02183461      -0.03325012
C        9.49941000       4.97420000      10.32384849      -0.00449536       0.00626836      -0.03277956
C        8.61564000       7.27003000      10.32384393       0.01093356      -0.00243878      -0.03379250
C        7.73199000       9.56586000      10.32367664      -0.03235306       0.00709004      -0.03325599
C       -2.87179000       5.48437000      10.32400345      -0.00691691      -0.00440532      -0.03237941
C       -3.75557000       7.78020000      10.32399614      -0.00660193      -0.00903329      -0.03328750
C       -4.63921000      10.07603000      10.32379476       0.01983485       0.02804803      -0.03310214
C        1.32550000       0.51017000      10.31814673       0.29009528      -0.23453970      -0.28425618
C        0.44186000       2.80600000      10.31814688       0.05782879       0.36852681      -0.28425208
C       -0.44179000       5.10183000      10.32379438       0.03357439      -0.00829837      -0.03309547
C       -1.32557000       7.39766000      10.32399417      -0.01118051       0.00242326      -0.03380853
C       -2.20914000       9.69337000      10.32400513       0.00133160      -0.00268457      -0.03260261
C        3.75557000       0.12751000      10.32379464      -0.02322185      -0.02520167      -0.03309273
C        2.87192000       2.42334000      10.32482662       0.18807481       0.07251829      -0.03820873
C        1.98828000       4.71917000      10.32379445      -0.03495370       0.00205018      -0.03311036
C        1.10450000       7.01500000      10.32400481       0.00257175       0.00669270      -0.03261394
C        0.22086000       9.31083000      10.32395651       0.00078985      -0.00062899      -0.03491819
C       -0.66271000      11.60655000      10.32399416       0.00522271       0.01082386      -0.03380994
C        5.30199000       2.04069000      10.32400360      -0.00579743       0.00735833      -0.03238388
C        4.41835000       4.33652000      10.32400140      -0.00081096      -0.00954837      -0.03244867
C        3.53457000       6.63235000      10.32399572       0.01505846       0.00072576      -0.03330343
C        2.65093000       8.92818000      10.32399383       0.00293658      -0.01151892      -0.03382198
C        1.76729000      11.22401000      10.32400509      -0.00623162      -0.00184870      -0.03260244
C        7.73206000       1.65803000      10.32399614      -0.01074150       0.01209677      -0.03328531
C        6.84842000       3.95386000      10.32394813      -0.00121627      -0.00318318      -0.03390223
C        5.96478000       6.24969000      10.32394774      -0.00355301       0.00236860      -0.03391231
C        5.08100000       8.54552000      10.32400322       0.00929177       0.00094959      -0.03239180
C        4.19735000      10.84135000      10.32379428      -0.00965927       0.03276869      -0.03310007
C       10.16206000       1.27549000      10.32379462       0.01548961      -0.03164295      -0.03309899
C        9.27849000       3.57120000      10.32400150       0.00556684       0.00659317      -0.03243612
C        8.39484000       5.86703000      10.32394815       0.00314154      -0.00008424      -0.03389968
C        7.51106000       8.16286000      10.32400164      -0.00754166       0.00563349      -0.03243932
C        6.62742000      10.45869000      10.32482671      -0.03133124      -0.19883916      -0.03820758
C       12.59213000       0.89283000      10.31814690      -0.34813170      -0.13407007      -0.28425008
C       11.70849000       3.18866000      10.32482663      -0.15599129       0.12582709      -0.03820145
Li       0.22093010       1.40299989      11.89114008      -0.00000071      -0.00000144      -0.17516313
125
Lattice="13.696700096 0.0 0.0 -6.848350048 11.861690231 0.0 0.0 0.0 24.0" Properties=species:S:1:pos:R:3:forces:R:3 energy=-1153.5601561352466 stress="-0.066052477670792 3.6476611626835456e-06 3.4632828232608624e-09 3.6476611626835456e-06 -0.06605110934063954 -2.6145631227749717e-09 3.4632828232608624e-09 -2.6145631227749717e-09 -0.0029757517407209342" free_energy=-1153.5601561352466 pbc="T T T"
C        0.00000000       0.00000000      13.73514350      -0.04689991      -0.29750384      -0.04595242
C       -0.88364000       2.29583000      13.73514198      -0.23429958       0.18935100      -0.04594912
C       -1.76729000       4.59166000      13.67482149      -0.01115418      -0.01679507       0.00213118
C       -2.65106000       6.88749000      13.67860239      -0.00146881      -0.00009276       0.03597413
C       -3.53464000       9.18320000      13.67835405      -0.00680279      -0.01480697       0.03579148
C       -4.41828000      11.47903000      13.68408150       0.06309323      -0.05096830      -0.01971138
C        1.54643000       1.91317000      13.73514358       0.28085964       0.10833993      -0.04595170
C        0.66278000       4.20900000      13.68408208       0.01194563       0.07911879      -0.01970770
C       -0.22100000       6.50483000      13.67835897      -0.01360073       0.01067605       0.03574273
C       -1.10464000       8.80066000      13.67882302       0.00169980      -0.00242492       0.03428698
C       -1.98821000      11.09637000      13.67835793       0.01289707       0.00953170       0.03573881
C        3.97649000       1.53051000      13.67482175      -0.00765176       0.01823167       0.00213698
C        3.09285000       3.82634000      13.67482331       0.00623281      -0.01881653       0.00217920
C        2.20907000       6.12217000      13.67835648       0.02028821       0.00439670       0.03580679
C        1.32543000       8.41800000      13.67882383       0.00107027       0.00194444       0.03429290
C        0.44179000      10.71383000      13.67882306      -0.00129142      -0.00037493       0.03428653
C        6.40656000       1.14786000      13.67860183      -0.00183982       0.00337561       0.03597686
C        5.52292000       3.44369000      13.67872992      -0.01159405      -0.00446515       0.04279179
C        4.63928000       5.73952000      13.67861985      -0.00175193       0.00007324       0.03568010
C        3.75550000       8.03535000      13.67860378       0.00003259      -0.00207825       0.03598966
C        2.87186000      10.33118000      13.67835929      -0.00219268      -0.01736923       0.03574582
C        8.83656000       0.76532000      13.67835462      -0.01258596       0.01122210       0.03579146
C        7.95299000       3.06103000      13.67861791      -0.00354300       0.00216398       0.03566682
C        7.06935000       5.35686000      13.67885573      -0.00055519      -0.00049946       0.03266859