145
Lattice="14.760000229 0.0 0.0 -7.380000114 12.782535158 0.0 0.0 0.0 24.0" Properties=species:S:1:pos:R:3:forces:R:3 energy=-1339.8522913630572 stress="-0.0676975907009936 -6.297452034099529e-06 1.0801768321821238e-19 -6.297452034099529e-06 -0.0677044174406916 8.741296740835417e-18 1.0801768321821238e-19 8.741296740835417e-18 -6.34159200461416e-05" free_energy=-1339.8522913630572 pbc="T T T"
C        0.00000000       0.00000000      13.87500000      -0.17641158      -0.10549698       0.03528696
C       -1.23002000       2.13047000      13.87500000      -0.15706723       0.08942194      -0.02514298
C       12.30002000       4.26080000      13.87500000      -0.00522254      -0.00326332      -0.00218166
C       -3.69000000       6.39127000      13.87500000       0.00606144      -0.00035622       0.00005998
C       -4.92002000       8.52173000      13.87500000      -0.00488179      -0.00480050      -0.00217302
C       -6.14998000      10.65207000      13.87500000       0.00074041      -0.18231091      -0.02513935
C        2.46005000       0.00000000      13.87500000       0.17817488      -0.10490876       0.03519749
C        1.23002000       2.13047000      13.87500000      -0.00115130       0.20495735       0.03521926
C        0.00007000       4.26080000      13.87500000       0.01888893       0.00772910       0.00518718
C       -1.22995000       6.39127000      13.87500000      -0.01387067       0.00235488      -0.00134079
C       -2.45998000       8.52173000      13.87500000      -0.00407697      -0.01453624      -0.00134340
C       -3.68993000      10.65207000      13.87500000       0.01185182       0.01976623       0.00518059
C        4.91995000       0.00000000      13.87500000      -0.00319169      -0.02376425       0.00520072
C        3.68993000       2.13047000      13.87500000       0.16331861       0.08979912      -0.02512859
C        2.45998000       4.26080000      13.87500000      -0.02209001       0.00758967       0.00518799
C        1.22995000       6.39127000      13.87500000       0.00387102       0.00615123      -0.00121201
C       -0.00007000       8.52173000      13.87500000       0.00431635      -0.00151152       0.00007146
C       -1.23002000      10.65207000      13.87500000       0.00750262      -0.00150763      -0.00121982
C        7.38000000       0.00000000      13.87500000       0.01279974       0.00707023      -0.00133268
C        6.14998000       2.13047000      13.87500000       0.00114615       0.00502720      -0.00216957
C        4.92002000       4.26080000      13.87500000       0.00679729      -0.00326297      -0.00217943
C        3.69000000       6.39127000      13.87500000       0.01568000       0.00186833      -0.00133377
C        2.45998000       8.52173000      13.87500000       0.00214302      -0.00190313       0.00007254
C        1.23002000      10.65207000      13.87500000       0.00078695       0.00125203       0.00006631
C        9.84005000       0.00000000      13.87500000      -0.01096762       0.00755717      -0.00134148
C        8.61002000       2.13047000      13.87500000      -0.00118824      -0.00571373       0.00005134
C        7.38007000       4.26080000      13.87500000      -0.00511620       0.00202104       0.00039003
C        6.15005000       6.39127000      13.87500000      -0.00425865       0.00013406       0.00005249
C        4.92002000       8.52173000      13.87500000       0.00169604      -0.01453514      -0.00134261
C        3.69007000      10.65207000      13.87500000      -0.01075660      -0.00135325      -0.00122608
C       12.29995000       0.00000000      13.87500000       0.01088916      -0.02374920       0.00519116
C       11.06993000       2.13047000      13.87500000       0.00527463       0.00543205      -0.00217938
C        9.83998000       4.26080000      13.87500000       0.00185170       0.00186426       0.00039660
C        8.60995000       6.39127000      13.87500000       0.00387567      -0.00038256       0.00040513
C        7.37993000       8.52173000      13.87500000       0.01132131      -0.00440500      -0.00217575
C        6.14998000      10.65207000      13.87500000      -0.01506492       0.01967073       0.00518899
C        0.00007000       1.42027000      13.87500000      -0.18307078       0.10498029       0.03529458
C       -1.22995000       3.55073000      13.87500000      -0.01715078      -0.01943400       0.00519634
C       -2.45990000       5.68107000      13.87500000      -0.00105389       0.01487044      -0.00133587
C       -3.68993000       7.81154000      13.87500000       0.00874925      -0.00266153      -0.00133506
C       -4.91995000       9.94200000      13.87500000      -0.02415111      -0.00748911       0.00518908
C       -6.14990000      12.07234000      13.87500000      -0.00393637      -0.20522949       0.03518795
C        2.45998000       1.42027000      13.87500000       0.18078347       0.10512290       0.03526878
C        1.22995000       3.55073000      13.87500000       0.00418890       0.18218102      -0.02513220
C       -0.00000000       5.68107000      13.87500000       0.00921613       0.00461866      -0.00218277
C       -1.23002000       7.81154000      13.87500000      -0.00159754      -0.00036330       0.00005175
C       -2.46005000       9.94200000      13.87500000       0.01025613       0.00301719      -0.00218389
C       -3.69000000      12.07234000      13.87500000       0.16116256      -0.09022412      -0.02513093
C        4.92002000       1.42027000      13.87500000      -0.00987323       0.02419017       0.00519292
C        3.69000000       3.55073000      13.87500000       0.01537755      -0.01909260       0.00519174
C        2.46005000       5.68107000      13.87500000      -0.01093665       0.00506717      -0.00217204
C        1.23002000       7.81154000      13.87500000      -0.00285619       0.00037563       0.00040585
C        0.00000000       9.94200000      13.87500000      -0.00155231      -0.00141790       0.00039822
C       -1.22995000      12.07234000      13.87500000      -0.00490040      -0.00548453      -0.00217548
C        7.38007000       1.42027000      13.87500000       0.00586689      -0.00741552      -0.00133563
C        6.15005000       3.55073000      13.87500000       0.00544084       0.00172272      -0.00121966
C        4.92010000       5.68107000      13.87500000      -0.00682343       0.01487295      -0.00133582
C        3.69007000       7.81154000      13.87500000      -0.00085979      -0.00043884       0.00005859
C        2.46005000       9.94200000      13.87500000      -0.00021148      -0.00178819       0.00039737
C        1.23010000      12.07234000      13.87500000      -0.00394290       0.00533078       0.00005752
C        9.83998000       1.42027000      13.87500000      -0.00832832      -0.00733969      -0.00134035
C        8.60995000       3.55073000      13.87500000       0.00426822      -0.00137370       0.00005873
C        7.38000000       5.68107000      13.87500000       0.00220609       0.00171380       0.00006559
C        6.14998000       7.81154000      13.87500000      -0.01120621      -0.00258179      -0.00134114
C        4.91995000       9.94200000      13.87500000      -0.00175585       0.00300430      -0.00218552
C        3.69000000      12.07234000      13.87500000       0.00320540      -0.00592684      -0.00217709
C       12.30002000       1.42027000      13.87500000       0.00423208       0.02420644       0.00520545
C       11.07000000       3.55073000      13.87500000      -0.00720477       0.00209513      -0.00121757
C        9.84005000       5.68107000      13.87500000      -0.00392560       0.00217138       0.00007351
C        8.61002000       7.81154000      13.87500000      -0.00284483      -0.00615151      -0.00121044
C        7.38000000       9.94200000      13.87500000       0.02240546      -0.00713273       0.00519050
C        6.15005000      12.07234000      13.87500000      -0.16288042      -0.08981841      -0.02514283
C        0.00000000       0.00000000      10.12500000      -0.17641158      -0.10549698      -0.03528696
C       -1.23002000       2.13047000      10.12500000      -0.15706723       0.08942194       0.02514298
C       12.30002000       4.26080000      10.12500000      -0.00522254      -0.00326332       0.00218166
C       -3.69000000       6.39127000      10.12500000       0.00606144      -0.00035622      -0.00005998
C       -4.92002000       8.52173000      10.12500000      -0.00488179      -0.00480050       0.00217302
C       -6.14998000      10.65207000      10.12500000       0.00074041      -0.18231091       0.02513935
C        2.46005000       0.00000000      10.12500000       0.17817488      -0.10490876      -0.03519749
C        1.23002000       2.13047000      10.12500000      -0.00115130       0.20495735      -0.03521926
C        0.00007000       4.26080000      10.12500000       0.01888893       0.00772910      -0.00518718
C       -1.22995000       6.39127000      10.12500000      -0.01387067       0.00235488       0.00134079
C       -2.45998000       8.52173000      10.12500000      -0.00407697      -0.01453624       0.00134340
C       -3.68993000      10.65207000      10.12500000       0.01185182       0.01976623      -0.00518059
C        4.91995000       0.00000000      10.12500000      -0.00319169      -0.02376425      -0.00520072
C        3.68993000       2.13047000      10.12500000       0.16331861       0.08979912       0.02512859
C        2.45998000       4.26080000      10.12500000      -0.02209001       0.00758967      -0.00518799
C        1.22995000       6.39127000      10.12500000       0.00387102       0.00615123       0.00121201
C       -0.00007000       8.52173000      10.12500000       0.00431635      -0.00151152      -0.00007146
C       -1.23002000      10.65207000      10.12500000       0.00750262      -0.00150763       0.00121982
C        7.38000000       0.00000000      10.12500000       0.01279974       0.00707023       0.00133268
C        6.14998000       2.13047000      10.12500000       0.00114615       0.00502720       0.00216957
C        4.92002000       4.26080000      10.12500000       0.00679729      -0.00326297       0.00217943
C        3.69000000       6.39127000      10.12500000       0.01568000       0.00186833       0.00133377
C        2.45998000       8.52173000      10.12500000       0.00214302      -0.00190313      -0.00007254
C        1.23002000      10.65207000      10.12500000       0.00078695       0.00125203      -0.00006631
C        9.84005000       0.00000000      10.12500000      -0.01096762       0.00755717       0.00134148
C        8.61002000       2.13047000      10.12500000      -0.00118824      -0.00571373      -0.00005134
C        7.38007000       4.26080000      10.12500000      -0.00511620       0.00202104      -0.00039003
C        6.15005000       6.39127000      10.12500000      -0.00425865       0.00013406      -0.00005249
C        4.92002000       8.52173000      10.12500000       0.00169604      -0.01453514       0.00134261
C        3.69007000      10.65207000      10.12500000      -0.01075660      -0.00135325       0.00122608
C       12.29995000       0.00000000      10.12500000       0.01088916      -0.02374920      -0.00519116
C       11.06993000       2.13047000      10.12500000       0.00527463       0.00543205       0.00217938
C        9.83998000       4.26080000      10.12500000       0.00185170       0.00186426      -0.00039660
C        8.60995000       6.39127000      10.12500000       0.00387567      -0.00038256      -0.00040513
C        7.37993000       8.52173000      10.12500000       0.01132131      -0.00440500       0.00217575
C        6.14998000      10.65207000      10.12500000      -0.01506492       0.01967073      -0.00518899
C        0.00007000       1.42027000      10.12500000      -0.18307078       0.10498029      -0.03529458
C       -1.22995000       3.55073000      10.12500000      -0.01715078      -0.01943400      -0.00519634
C       -2.45990000       5.68107000      10.12500000      -0.00105389       0.01487044       0.00133587
C       -3.68993000       7.81154000      10.12500000       0.00874925      -0.00266153       0.00133506
C       -4.91995000       9.94200000      10.12500000      -0.02415111      -0.00748911      -0.00518908
C       -6.14990000      12.07234000      10.12500000      -0.00393637      -0.20522949      -0.03518795
C        2.45998000       1.42027000      10.12500000       0.18078347       0.10512290      -0.03526878
C        1.22995000       3.55073000      10.12500000       0.00418890       0.18218102       0.02513220
C       -0.00000000       5.68107000      10.12500000       0.00921613       0.00461866       0.00218277
C       -1.23002000       7.81154000      10.12500000      -0.00159754      -0.00036330      -0.00005175
C       -2.46005000       9.94200000      10.12500000       0.01025613       0.00301719       0.00218389
C       -3.69000000      12.07234000      10.12500000       0.16116256      -0.09022412       0.02513093
C        4.92002000       1.42027000      10.12500000      -0.00987323       0.02419017      -0.00519292
C        3.69000000       3.55073000      10.12500000       0.01537755      -0.01909260      -0.00519174
C        2.46005000       5.68107000      10.12500000      -0.01093665       0.00506717       0.00217204
C        1.23002000       7.81154000      10.12500000      -0.00285619       0.00037563      -0.00040585
C        0.00000000       9.94200000      10.12500000      -0.00155231      -0.00141790      -0.00039822
C       -1.22995000      12.07234000      10.12500000      -0.00490040      -0.00548453       0.00217548
C        7.38007000       1.42027000      10.12500000       0.00586689      -0.00741552       0.00133563
C        6.15005000       3.55073000      10.12500000       0.00544084       0.00172272       0.00121966
C        4.92010000       5.68107000      10.12500000      -0.00682343       0.01487295       0.00133582
C        3.69007000       7.81154000      10.12500000      -0.00085979      -0.00043884      -0.00005859
C        2.46005000       9.94200000      10.12500000      -0.00021148      -0.00178819      -0.00039737
C        1.23010000      12.07234000      10.12500000      -0.00394290       0.00533078      -0.00005752
C        9.83998000       1.42027000      10.12500000      -0.00832832      -0.00733969       0.00134035
C        8.60995000       3.55073000      10.12500000       0.00426822      -0.00137370      -0.00005873
C        7.38000000       5.68107000      10.12500000       0.00220609       0.00171380      -0.00006559
C        6.14998000       7.81154000      10.12500000      -0.01120621      -0.00258179       0.00134114
C        4.91995000       9.94200000      10.12500000      -0.00175585       0.00300430       0.00218552
C        3.69000000      12.07234000      10.12500000       0.00320540      -0.00592684       0.00217709
C       12.30002000       1.42027000      10.12500000       0.00423208       0.02420644      -0.00520545
C       11.07000000       3.55073000      10.12500000      -0.00720477       0.00209513       0.00121757
C        9.84005000       5.68107000      10.12500000      -0.00392560       0.00217138      -0.00007351
C        8.61002000       7.81154000      10.12500000      -0.00284483      -0.00615151       0.00121044
C        7.38000000       9.94200000      10.12500000       0.02240546      -0.00713273      -0.00519050
C        6.15005000      12.07234000      10.12500000      -0.16288042      -0.08981841       0.02514283
Li       1.22995000       0.71020000      12.00000000       0.00006430      -0.00016485      -0.00000000
145
Lattice="14.760000229 0.0 0.0 -7.380000114 12.782535158 0.0 0.0 0.0 24.0" Properties=species:S:1:pos:R:3:forces:R:3 energy=-1339.8533056651725 stress="-0.0677032867520267 -6.2955247007574875e-06 2.5898475910048323e-18 -6.2955247007574875e-06 -0.0677101180801891 5.354722086110489e-18 2.5898475910048323e-18 5.354722086110489e-18 -5.56141262377316e-05" free_energy=-1339.8533056651725 pbc="T T T"
C        0.00000000       0.00000000      13.87752050      -0.17591924      -0.10520705       0.02123978
C       -1.23002000       2.13047000      13.87320407      -0.15754251       0.08969590       0.00925180
C       12.30002000       4.26080000      13.87484417      -0.00528547      -0.00317409       0.00160894
C       -3.69000000       6.39127000      13.87500428       0.00606192      -0.00035598      -0.00112405
C       -4.92002000       8.52173000      13.87484478      -0.00483630      -0.00489942       0.00161234
C       -6.14998000      10.65207000      13.87320433       0.00074050      -0.18286634       0.00919332
C        2.46005000       0.00000000      13.87751411       0.17768356      -0.10462239       0.02122699
C        1.23002000       2.13047000      13.87751566      -0.00115152       0.20438201       0.02126119
C        0.00007000       4.26080000      13.87537051       0.01859790       0.00798585      -0.00866293
C       -1.22995000       6.39127000      13.87490423      -0.01387328       0.00237278      -0.00061051
C       -2.45998000       8.52173000      13.87490404      -0.00406290      -0.01454783      -0.00061122
C       -3.68993000      10.65207000      13.87537004       0.01192899       0.01938730      -0.00867133
C        4.91995000       0.00000000      13.87537148      -0.00282568      -0.02364058      -0.00866495
C        3.68993000       2.13047000      13.87320510       0.16379387       0.09007323       0.00923567
C        2.45998000       4.26080000      13.87537057      -0.02179888       0.00784663      -0.00866753
C        1.22995000       6.39127000      13.87491343       0.00387086       0.00617987      -0.00291840
C       -0.00007000       8.52173000      13.87500510       0.00430569      -0.00151772       0.00069226
C       -1.23002000      10.65207000      13.87491287       0.00752746      -0.00152179      -0.00292355
C        7.38000000       0.00000000      13.87490481       0.01281666       0.00706368      -0.00060430
C        6.14998000       2.13047000      13.87484503       0.00125442       0.00503697       0.00160637
C        4.92002000       4.26080000      13.87484433       0.00686039      -0.00317374       0.00160546
C        3.69000000       6.39127000      13.87490473       0.01568271       0.00188623      -0.00060254
C        2.45998000       8.52173000      13.87500518       0.00215369      -0.00190927       0.00069553
C        1.23002000      10.65207000      13.87500474       0.00078699       0.00126435       0.00069218
C        9.84005000       0.00000000      13.87490418      -0.01098443       0.00755050      -0.00060631
C        8.61002000       2.13047000      13.87500367      -0.00118820      -0.00571419      -0.00113354
C        7.38007000       4.26080000      13.87502786      -0.00514529       0.00200426      -0.00058166
C        6.15005000       6.39127000      13.87500375      -0.00425906       0.00013433      -0.00112998
C        4.92002000       8.52173000      13.87490410       0.00168198      -0.01454668      -0.00061103
C        3.69007000      10.65207000      13.87491242      -0.01078149      -0.00136732      -0.00292530
C       12.29995000       0.00000000      13.87537080       0.01052126      -0.02362503      -0.00867009
C       11.06993000       2.13047000      13.87484433       0.00516623       0.00544186       0.00161056
C        9.83998000       4.26080000      13.87502833       0.00188076       0.00184745      -0.00057809
C        8.60995000       6.39127000      13.87502894       0.00387563      -0.00034889      -0.00057141
C        7.37993000       8.52173000      13.87484459       0.01127579      -0.00450426       0.00160930
C        6.14998000      10.65207000      13.87537064      -0.01514258       0.01929022      -0.00868200
C        0.00007000       1.42027000      13.87752104      -0.18257083       0.10469207       0.02123226
C       -1.22995000       3.55073000      13.87537117      -0.01722776      -0.01905299      -0.00867929
C       -2.45990000       5.68107000      13.87490458      -0.00106802       0.01488161      -0.00060862
C       -3.68993000       7.81154000      13.87490464       0.00875234      -0.00267949      -0.00060614
C       -4.91995000       9.94200000      13.87537065      -0.02386172      -0.00774484      -0.00867538
C       -6.14990000      12.07234000      13.87751343      -0.00393470      -0.20466278       0.02122888
C        2.45998000       1.42027000      13.87751920       0.18028592       0.10483680       0.02121242
C        1.22995000       3.55073000      13.87320484       0.00418878       0.18273225       0.00919767
C        0.00000000       5.68107000      13.87484409       0.00917031       0.00471767       0.00160590
C       -1.23002000       7.81154000      13.87500370      -0.00159800      -0.00036355      -0.00113048
C       -2.46005000       9.94200000      13.87484401       0.01031891       0.00292824       0.00159948
C       -3.69000000      12.07234000      13.87320493       0.16164214      -0.09050146       0.00920050
C        4.92002000       1.42027000      13.87537092      -0.00950480       0.02406676      -0.00866563
C        3.69000000       3.55073000      13.87537084       0.01545431      -0.01871210      -0.00866955
C        2.46005000       5.68107000      13.87484485      -0.01089086       0.00516590       0.00161055
C        1.23002000       7.81154000      13.87502899      -0.00285622       0.00034210      -0.00056893
C        0.00000000       9.94200000      13.87502844      -0.00158149      -0.00140104      -0.00057550
C       -1.22995000      12.07234000      13.87484461      -0.00479163      -0.00549490       0.00161352
C        7.38007000       1.42027000      13.87490460       0.00588395      -0.00740904      -0.00060334
C        6.15005000       3.55073000      13.87491288       0.00546558       0.00173729      -0.00292213
C        4.92010000       5.68107000      13.87490458      -0.00680923       0.01488416      -0.00060884
C        3.69007000       7.81154000      13.87500418      -0.00085932      -0.00043904      -0.00112724
C        2.46005000       9.94200000      13.87502838      -0.00018234      -0.00177129      -0.00057864
C        1.23010000      12.07234000      13.87500411      -0.00394288       0.00533126      -0.00113006
C        9.83998000       1.42027000      13.87490426      -0.00834519      -0.00733308      -0.00061104
C        8.60995000       3.55073000      13.87500420       0.00426822      -0.00138601       0.00068538
C        7.38000000       5.68107000      13.87500468       0.00219537       0.00171988       0.00068892
C        6.14998000       7.81154000      13.87490420      -0.01120911      -0.00259974      -0.00060989
C        4.91995000       9.94200000      13.87484389      -0.00181847       0.00291536       0.00159915
C        3.69000000      12.07234000      13.87484449       0.00309643      -0.00593705       0.00160106
C       12.30002000       1.42027000      13.87537182       0.00386358       0.02408274      -0.00867163
C       11.07000000       3.55073000      13.87491303      -0.00722952       0.00210951      -0.00292429
C        9.84005000       5.68107000      13.87500525      -0.00391490       0.00217747       0.00069572
C        8.61002000       7.81154000      13.87491354      -0.00284497      -0.00618013      -0.00291516
C        7.38000000       9.94200000      13.87537075       0.02211583      -0.00738790      -0.00866315
C        6.15005000      12.07234000      13.87320408      -0.16335632      -0.09009424       0.00923902
C        0.00000000       0.00000000      10.12247950      -0.17591924      -0.10520705      -0.02123978
C       -1.23002000       2.13047000      10.12679593      -0.15754251       0.08969590      -0.00925180
C       12.30002000       4.26080000      10.12515583      -0.00528547      -0.00317409      -0.00160894
C       -3.69000000       6.39127000      10.12499572       0.00606192      -0.00035598       0.00112405
C       -4.92002000       8.52173000      10.12515522      -0.00483630      -0.00489942      -0.00161234
C       -6.14998000      10.65207000      10.12679567       0.00074050      -0.18286634      -0.00919332
C        2.46005000       0.00000000      10.12248589       0.17768356      -0.10462239      -0.02122699
C        1.23002000       2.13047000      10.12248434      -0.00115152       0.20438201      -0.02126119
C        0.00007000       4.26080000      10.12462949       0.01859790       0.00798585       0.00866293
C       -1.22995000       6.39127000      10.12509577      -0.01387328       0.00237278       0.00061051
C       -2.45998000       8.52173000      10.12509596      -0.00406290      -0.01454783       0.00061122
C       -3.68993000      10.65207000      10.12462996       0.01192899       0.01938730       0.00867133
C        4.91995000       0.00000000      10.12462852      -0.00282568      -0.02364058       0.00866495
C        3.68993000       2.13047000      10.12679490       0.16379387       0.09007323      -0.00923567
C        2.45998000       4.26080000      10.12462943      -0.02179888       0.00784663       0.00866753
C        1.22995000       6.39127000      10.12508657       0.00387086       0.00617987       0.00291840
C       -0.00007000       8.52173000      10.12499490       0.00430569      -0.00151772      -0.00069226
C       -1.23002000      10.65207000      10.12508713       0.00752746      -0.00152179       0.00292355
C        7.38000000       0.00000000      10.12509519       0.01281666       0.00706368       0.00060430
C        6.14998000       2.13047000      10.12515497       0.00125442       0.00503697      -0.00160637
C        4.92002000       4.26080000      10.12515567       0.00686039      -0.00317374      -0.00160546
C        3.69000000       6.39127000      10.12509527       0.01568271       0.00188623       0.00060254
C        2.45998000       8.52173000      10.12499482       0.00215369      -0.00190927      -0.00069553
C        1.23002000      10.65207000      10.12499526       0.00078699       0.00126435      -0.00069218
C        9.84005000       0.00000000      10.12509582      -0.01098443       0.00755050       0.00060631
C        8.61002000       2.13047000      10.12499633      -0.00118820      -0.00571419       0.00113354
C        7.38007000       4.26080000      10.12497214      -0.00514529       0.00200426       0.00058166
C        6.15005000       6.39127000      10.12499625      -0.00425906       0.00013433       0.00112998
C        4.92002000       8.52173000      10.12509590       0.00168198      -0.01454668       0.00061103
C        3.69007000      10.65207000      10.12508758      -0.01078149      -0.00136732       0.00292530
C       12.29995000       0.00000000      10.12462920       0.01052126      -0.02362503       0.00867009
C       11.06993000       2.13047000      10.12515567       0.00516623       0.00544186      -0.00161056
C        9.83998000       4.26080000      10.12497167       0.00188076       0.00184745       0.00057809
C        8.60995000       6.39127000      10.12497106       0.00387563      -0.00034889       0.00057141
C        7.37993000       8.52173000      10.12515541       0.01127579      -0.00450426      -0.00160930
C        6.14998000      10.65207000      10.12462936      -0.01514258       0.01929022       0.00868200
C        0.00007000       1.42027000      10.12247896      -0.18257083       0.10469207      -0.02123226
C       -1.22995000       3.55073000      10.12462883      -0.01722776      -0.01905299       0.00867929
C       -2.45990000       5.68107000      10.12509542      -0.00106802       0.01488161       0.00060862
C       -3.68993000       7.81154000      10.12509536       0.00875234      -0.00267949       0.00060614
C       -4.91995000       9.94200000      10.12462935      -0.02386172      -0.00774484       0.00867538
C       -6.14990000      12.07234000      10.12248657      -0.00393470      -0.20466278      -0.02122888
C        2.45998000       1.42027000      10.12248080       0.18028592       0.10483680      -0.02121242
C        1.22995000       3.55073000      10.12679516       0.00418878       0.18273225      -0.00919767
C        0.00000000       5.68107000      10.12515591       0.00917031       0.00471767      -0.00160590
C       -1.23002000       7.81154000      10.12499630      -0.00159800      -0.00036355       0.00113048
C       -2.46005000       9.94200000      10.12515599       0.01031891       0.00292824      -0.00159948
C       -3.69000000      12.07234000      10.12679507       0.16164214      -0.09050146      -0.00920050
C        4.92002000       1.42027000      10.12462908      -0.00950480       0.02406676       0.00866563
C        3.69000000       3.55073000      10.12462916       0.01545431      -0.01871210       0.00866955
C        2.46005000       5.68107000      10.12515515      -0.01089086       0.00516590      -0.00161055
C        1.23002000       7.81154000      10.12497101      -0.00285622       0.00034210       0.00056893
C        0.00000000       9.94200000      10.12497156      -0.00158149      -0.00140104       0.00057550
C       -1.22995000      12.07234000      10.12515539      -0.00479163      -0.00549490      -0.00161352
C        7.38007000       1.42027000      10.12509540       0.00588395      -0.00740904       0.00060334
C        6.15005000       3.55073000      10.12508712       0.00546558       0.00173729       0.00292213
C        4.92010000       5.68107000      10.12509542      -0.00680923       0.01488416       0.00060884
C        3.69007000       7.81154000      10.12499582      -0.00085932      -0.00043904       0.00112724
C        2.46005000       9.94200000      10.12497162      -0.00018234      -0.00177129       0.00057864
C        1.23010000      12.07234000      10.12499589      -0.00394288       0.00533126       0.00113006
C        9.83998000       1.42027000      10.12509574      -0.00834519      -0.00733308       0.00061104