145
Lattice="14.760000229 0.0 0.0 -7.380000114 12.782535158 0.0 0.0 0.0 24.0" Properties=species:S:1:pos:R:3:forces:R:3 energy=-1338.8539176164609 stress="-0.06572740861386696 -6.614953008491058e-06 -4.756911749545631e-09 -6.614953008491058e-06 -0.065734923415526 2.4339818553019258e-08 -4.756911749545631e-09 2.4339818553019258e-08 -0.0038039907410572014" free_energy=-1338.8539176164609 pbc="T T T"
C        0.00000000       0.00000000      13.67500000       0.00333392      -0.31905340       0.18883668
C       -1.23002000       2.13047000      13.67500000      -0.27147504       0.15546148       0.18871533
C       12.30002000       4.26080000      13.67500000       0.00140401      -0.01793006       0.03274800
C       -3.69000000       6.39127000      13.67500000       0.00285539      -0.00211704       0.03639573
C       -4.92002000       8.52173000      13.67500000       0.00251418      -0.00261614       0.03638674
C       -6.14998000      10.65207000      13.67500000      -0.01633912       0.01269113       0.03274936
C        2.46005000       0.00000000      13.67500000       0.06004651      -0.03677061       0.06128835
C        1.23002000       2.13047000      13.67500000       0.27342387       0.15607487       0.18875040
C        0.00007000       4.26080000      13.67500000      -0.00408234       0.07368150       0.06126879
C       -1.22995000       6.39127000      13.67500000      -0.02017146       0.00063330       0.03655025
C       -2.45998000       8.52173000      13.67500000      -0.00285888      -0.00286102       0.03705267
C       -3.68993000      10.65207000      13.67500000      -0.01159345      -0.01469102       0.03653336
C        4.91995000       0.00000000      13.67500000       0.01506055       0.01370140       0.03655919
C        3.68993000       2.13047000      13.67500000      -0.01408860       0.00701490       0.03274791
C        2.45998000       4.26080000      13.67500000       0.00020169      -0.01760420       0.03274414
C        1.22995000       6.39127000      13.67500000       0.02256605       0.00048542       0.03655726
C       -0.00007000       8.52173000      13.67500000       0.00365284       0.00080101       0.03733432
C       -1.23002000      10.65207000      13.67500000       0.00314848       0.00101541       0.03732742
C        7.38000000       0.00000000      13.67500000       0.00331420       0.00014854       0.03707935
C        6.14998000       2.13047000      13.67500000       0.00297283      -0.00244993       0.03638729
C        4.92002000       4.26080000      13.67500000      -0.01736454      -0.00829401       0.03712676
C        3.69000000       6.39127000      13.67500000       0.00375838      -0.00211330       0.03639627
C        2.45998000       8.52173000      13.67500000       0.00452217      -0.00326303       0.03706956
C        1.23002000      10.65207000      13.67500000      -0.00157212       0.00071058       0.03733661
C        9.84005000       0.00000000      13.67500000      -0.01264382       0.01384215       0.03654844
C        8.61002000       2.13047000      13.67500000      -0.00129886      -0.00205305       0.03636910
C        7.38007000       4.26080000      13.67500000      -0.00409155       0.00101961       0.03754341
C        6.15005000       6.39127000      13.67500000      -0.00291128      -0.00067132       0.03756079
C        4.92002000       8.52173000      13.67500000      -0.00085195      -0.00221224       0.03636941
C        3.69007000      10.65207000      13.67500000       0.00342513      -0.01468125       0.03653259
C       12.29995000       0.00000000      13.67500000      -0.05755337      -0.03689866       0.06129797
C       11.06993000       2.13047000      13.67500000       0.02134190       0.00703565       0.03273669
C        9.83998000       4.26080000      13.67500000       0.01893703      -0.00798016       0.03711617
C        8.60995000       6.39127000      13.67500000       0.00531767      -0.00081554       0.03756949
C        7.37993000       8.52173000      13.67500000       0.00365627       0.01903373       0.03712469
C        6.14998000      10.65207000      13.67500000       0.01792199       0.01303986       0.03273570
C        0.00007000       1.42027000      13.67500000      -0.00393481       0.00163461       3.83158889
C       -1.22995000       3.55073000      13.67500000      -0.02433660       0.15263239       0.04861866
C       -2.45990000       5.68107000      13.67500000       0.00353788       0.02512203       0.02875783
C       -3.68993000       7.81154000      13.67500000      -0.00313980       0.00150076       0.03197955
C       -4.91995000       9.94200000      13.67500000       0.02229867      -0.00735844       0.02875123
C       -6.14990000      12.07234000      13.67500000       0.11850486      -0.09523130       0.04861265
C        2.45998000       1.42027000      13.67500000       0.14676747      -0.05592595       0.04862022
C        1.22995000       3.55073000      13.67500000       0.02734831       0.15253748       0.04861687
C       -0.00000000       5.68107000      13.67500000       0.00152292      -0.01129822       0.02227688
C       -1.23002000       7.81154000      13.67500000      -0.00083039      -0.00158135       0.03238555
C       -2.46005000       9.94200000      13.67500000       0.00082328      -0.00278069       0.03237842
C       -3.69000000      12.07234000      13.67500000      -0.01010669       0.00871599       0.02227817
C        4.92002000       1.42027000      13.67500000       0.01319996      -0.01609547       0.02875649
C        3.69000000       3.55073000      13.67500000       0.02110456       0.01066440       0.02915533
C        2.46005000       5.68107000      13.67500000      -0.01077030       0.02543999       0.02875668
C        1.23002000       7.81154000      13.67500000      -0.00084362      -0.00122503       0.03239318
C        0.00000000       9.94200000      13.67500000      -0.00049251      -0.00205637       0.03264778
C       -1.22995000      12.07234000      13.67500000      -0.00471951       0.00563433       0.03239083
C        7.38007000       1.42027000      13.67500000      -0.00366509       0.00082300       0.03197962
C        6.15005000       3.55073000      13.67500000       0.00540230      -0.00669674       0.03191085
C        4.92010000       5.68107000      13.67500000      -0.00455930       0.01029667       0.03191721
C        3.69007000       7.81154000      13.67500000      -0.00419286       0.00150126       0.03197956
C        2.46005000       9.94200000      13.67500000       0.00220686      -0.00275057       0.03238422
C        1.23010000      12.07234000      13.67500000      -0.00252717       0.00530947       0.03239091
C        9.83998000       1.42027000      13.67500000      -0.01485314      -0.01643766       0.02875985
C        8.60995000       3.55073000      13.67500000      -0.00236933      -0.00672626       0.03190559
C        7.38000000       5.68107000      13.67500000       0.00152626       0.00211786       0.03256960
C        6.14998000       7.81154000      13.67500000      -0.00606156      -0.00225383       0.03191295
C        4.91995000       9.94200000      13.67500000      -0.01927037      -0.00738776       0.02875042
C        3.69000000      12.07234000      13.67500000       0.01316233       0.00871839       0.02228447
C       12.30002000       1.42027000      13.67500000      -0.14843210      -0.05560757       0.04860334
C       11.07000000       3.55073000      13.67500000      -0.02209469       0.01064863       0.02916019
C        9.84005000       5.68107000      13.67500000      -0.00268124       0.01062298       0.03191836
C        8.61002000       7.81154000      13.67500000       0.00438934      -0.00189502       0.03192004
C        7.38000000       9.94200000      13.67500000      -0.00049407      -0.02698486       0.02915640
C        6.15005000      12.07234000      13.67500000      -0.12582882      -0.09495090       0.04859159
C        0.00000000       0.00000000      10.32500000      -0.00354042      -0.30436105      -0.22559695
C       -1.23002000       2.13047000      10.32500000      -0.26619782       0.15085725      -0.22549108
C       12.30002000       4.26080000      10.32500000      -0.02147651      -0.01893640      -0.04101999
C       -3.69000000       6.39127000      10.32500000       0.00130454       0.01513121      -0.03591018
C       -4.92002000       8.52173000      10.32500000       0.01299979      -0.00443625      -0.03589023
C       -6.14998000      10.65207000      10.32500000      -0.03081395      -0.00285869      -0.04100838
C        2.46005000       0.00000000      10.32500000       0.16758382      -0.09727194      -0.00784433
C        1.23002000       2.13047000      10.32500000       0.26463093       0.15053899      -0.22550860
C        0.00007000       4.26080000      10.32500000      -0.00355337       0.20012302      -0.00785157
C       -1.22995000       6.39127000      10.32500000       0.00492056      -0.00247169      -0.03557772
C       -2.45998000       8.52173000      10.32500000      -0.00393452      -0.00393050      -0.03734974
C       -3.68993000      10.65207000      10.32500000      -0.00264309       0.01173438      -0.03555632
C        4.91995000       0.00000000      10.32500000      -0.00636105      -0.00405322      -0.03556330
C        3.68993000       2.13047000      10.32500000      -0.00528808       0.02408262      -0.04099382
C        2.45998000       4.26080000      10.32500000       0.01985200      -0.01927526      -0.04099989
C        1.22995000       6.39127000      10.32500000      -0.00732557      -0.00262341      -0.03556617
C       -0.00007000       8.52173000      10.32500000       0.00409338      -0.00428519      -0.03767344
C       -1.23002000      10.65207000      10.32500000      -0.00053413       0.00313079      -0.03768298
C        7.38000000       0.00000000      10.32500000      -0.00330547       0.00571951      -0.03737745
C        6.14998000       2.13047000      10.32500000       0.00840013      -0.01306254      -0.03589072
C        4.92002000       4.26080000      10.32500000       0.00296984       0.00601523      -0.03575916
C        3.69000000       6.39127000      10.32500000      -0.00792654       0.01513335      -0.03590903
C        2.45998000       8.52173000      10.32500000       0.00235715      -0.00362809      -0.03735869
C        1.23002000      10.65207000      10.32500000      -0.00113340       0.00352971      -0.03769990
C        9.84005000       0.00000000      10.32500000       0.00396444      -0.00391223      -0.03557536
C        8.61002000       2.13047000      10.32500000      -0.00995483      -0.01336212      -0.03588028
C        7.38007000       4.26080000      10.32500000      -0.00365309       0.00290974      -0.03732148
C        6.15005000       6.39127000      10.32500000      -0.00334541       0.00118611      -0.03733198
C        4.92002000       8.52173000      10.32500000      -0.01457902      -0.00473866      -0.03588148
C        3.69007000      10.65207000      10.32500000      -0.00460879       0.01176726      -0.03556204
C       12.29995000       0.00000000      10.32500000      -0.16973080      -0.09729684      -0.00784450
C       11.06993000       2.13047000      10.32500000       0.01336774       0.02405860      -0.04099095
C        9.83998000       4.26080000      10.32500000      -0.00462395       0.00561673      -0.03574246
C        8.60995000       6.39127000      10.32500000       0.00093994       0.00103960      -0.03732335
C        7.37993000       8.52173000      10.32500000       0.00408654      -0.00899901      -0.03573370
C        6.14998000      10.65207000      10.32500000       0.02920057      -0.00322414      -0.04099976
C        1.22995000       0.71020000      10.32500000       0.26232408      -0.15216685      -0.21243909
C       -0.00000000       2.84053000      10.32500000       0.00045657       0.30175368      -0.21241174
C       -1.23002000       4.97100000      10.32500000       0.03099663       0.00345673      -0.03736403
C       -2.46005000       7.10147000      10.32500000      -0.01048318      -0.00028076      -0.03121539
C       -3.69000000       9.23180000      10.32500000      -0.00411135      -0.01100745      -0.03121292
C       -4.92002000      11.36227000      10.32500000       0.02154047       0.01969527      -0.03737811
C        3.69000000       0.71020000      10.32500000      -0.01096688      -0.02920943      -0.03736784
C        2.46005000       2.84053000      10.32500000       0.16735264       0.10180193      -0.00536544
C        1.23002000       4.97100000      10.32500000      -0.02939657       0.00378884      -0.03736044
C        0.00000000       7.10147000      10.32500000      -0.00152852       0.00415827      -0.03089582
C       -1.22995000       9.23180000      10.32500000      -0.00375359       0.00293936      -0.03243437
C       -2.45998000      11.36227000      10.32500000       0.00451835      -0.00501244      -0.03089840
C        6.14990000       0.71020000      10.32500000       0.01310720       0.00831829      -0.03121558
C        4.91995000       2.84053000      10.32500000      -0.00669406       0.00828209      -0.03094049
C        3.68993000       4.97100000      10.32500000       0.00444521      -0.01111881      -0.03095083
C        2.45990000       7.10147000      10.32500000       0.01772213       0.00003702      -0.03121523
C        1.22995000       9.23180000      10.32500000       0.00071613       0.00290715      -0.03244025
C       -0.00007000      11.36227000      10.32500000       0.00366737      -0.00228640      -0.03244782
C        8.60995000       0.71020000      10.32500000      -0.00588008       0.00799271      -0.03121623
C        7.38000000       2.84053000      10.32500000       0.00048969      -0.00122145      -0.03231846
C        6.14998000       4.97100000      10.32500000       0.00107794      -0.00293125      -0.03277016
C        4.91995000       7.10147000      10.32500000       0.00012183      -0.00108595      -0.03232408
C        3.69000000       9.23180000      10.32500000       0.00509914      -0.01100242      -0.03121186
C        2.45998000      11.36227000      10.32500000      -0.00285365      -0.00536372      -0.03090471
C       11.07000000       0.71020000      10.32500000       0.00792580      -0.02918023      -0.03735895
C        9.84005000       2.84053000      10.32500000       0.00370217       0.00829523      -0.03094166
C        8.61002000       4.97100000      10.32500000       0.00059594      -0.00257460      -0.03276290
C        7.38000000       7.10147000      10.32500000      -0.00152816      -0.00037044      -0.03276224
C        6.15005000       9.23180000      10.32500000       0.00445303       0.00676099      -0.03093936
C        4.92002000      11.36227000      10.32500000      -0.01990496       0.01999267      -0.03736084
C       13.52990000       0.71020000      10.32500000      -0.25499719      -0.15202839      -0.21230683
C       12.29995000       2.84053000      10.32500000      -0.17037649       0.10182673      -0.00536994
C       11.06993000       4.97100000      10.32500000       0.00285392      -0.01110355      -0.03094743
C        9.83990000       7.10147000      10.32500000       0.00712744      -0.00076006      -0.03232325
C        8.60995000       9.23180000      10.32500000      -0.00747774       0.00673761      -0.03094731
C        7.37993000      11.36227000      10.32500000       0.00357402      -0.19983067      -0.00536587
Li       0.00007000       1.42027000      12.00000000      -0.00012651      -0.00004738      -3.37355366
145
Lattice="14.760000229 0.0 0.0 -7.380000114 12.782535158 0.0 0.0 0.0 24.0" Properties=species:S:1:pos:R:3:forces:R:3 energy=-1339.2583688857683 stress="-0.06575160923531015 -6.551507183973765e-06 1.3150978181983688e-07 -6.551507183973765e-06 -0.06575903456441866 -2.760963988513029e-08 1.3150978181983688e-07 -2.760963988513029e-08 -0.002978647684109081" free_energy=-1339.2583688857683 pbc="T T T"
C        0.00000000       0.00000000      13.68110047       0.00320798      -0.23791054       0.74644808
C       -1.23002000       2.13047000      13.68109655      -0.20158818       0.11513686       0.74674401
C       12.30002000       4.26080000      13.67605794      -0.00627751      -0.01555100      -0.01922697
C       -3.69000000       6.39127000      13.67617578       0.00126619      -0.00241574       0.03210156
C       -4.92002000       8.52173000      13.67617549       0.00146048      -0.00384275       0.03209573
C       -6.14998000      10.65207000      13.67605799      -0.01811127       0.00483387      -0.01921660
C        2.46005000       0.00000000      13.67697995       0.05348491      -0.03298833       0.09598366
C        1.23002000       2.13047000      13.68109768       0.20322981       0.11558388       0.74649106
C        0.00007000       4.26080000      13.67697932      -0.00408686       0.06609875       0.09596780
C       -1.22995000       6.39127000      13.67618077      -0.01769008       0.00511297       0.02839597
C       -2.45998000       8.52173000      13.67619701      -0.00244038      -0.00262030       0.03467678
C       -3.68993000      10.65207000      13.67618023      -0.00647310      -0.01478200       0.02838615
C        4.91995000       0.00000000      13.67618106       0.01769850       0.00931208       0.02840233
C        3.68993000       2.13047000      13.67605794      -0.00818969       0.01247993      -0.01923127
C        2.45998000       4.26080000      13.67605782       0.00788264      -0.01522159      -0.01923097
C        1.22995000       6.39127000      13.67618100       0.02008280       0.00496537       0.02839998
C       -0.00007000       8.52173000      13.67620610       0.00365295       0.00048871       0.03475355
C       -1.23002000      10.65207000      13.67620588       0.00287781       0.00117213       0.03474852
C        7.38000000       0.00000000      13.67619787       0.00331413      -0.00033440       0.03469518
C        6.14998000       2.13047000      13.67617551       0.00350841      -0.00092474       0.03209489
C        4.92002000       4.26080000      13.67619940      -0.01319460      -0.00588701       0.03336084
C        3.69000000       6.39127000      13.67617580       0.00534724      -0.00241115       0.03210143
C        2.45998000       8.52173000      13.67619755       0.00410358      -0.00302175       0.03468850
C        1.23002000      10.65207000      13.67620618      -0.00130124       0.00086668       0.03475507
C        9.84005000       0.00000000      13.67618072      -0.01528144       0.00945455       0.02840071
C        8.61002000       2.13047000      13.67617492      -0.00183230      -0.00052870       0.03208542
C        7.38007000       4.26080000      13.67621286      -0.00409100       0.00115978       0.03486599
C        6.15005000       6.39127000      13.67621342      -0.00278941      -0.00074122       0.03487812
C        4.92002000       8.52173000      13.67617493       0.00020063      -0.00343891       0.03208530
C        3.69007000      10.65207000      13.67618020      -0.00169347      -0.01477236       0.02838910
C       12.29995000       0.00000000      13.67698026      -0.05099958      -0.03311063       0.09597032
C       11.06993000       2.13047000      13.67605758       0.01542516       0.01249757      -0.01922931
C        9.83998000       4.26080000      13.67619906       0.01476955      -0.00557464       0.03335522
C        8.60995000       6.39127000      13.67621370       0.00519601      -0.00088534       0.03488390
C        7.37993000       8.52173000      13.67619933       0.00365549       0.01422186       0.03336096
C        6.14998000      10.65207000      13.67605754       0.01968603       0.00517473      -0.01923006
C        0.00007000       1.42027000      13.79878147      -0.00372505       0.00142671      -0.18154062
C       -1.22995000       3.55073000      13.67657065      -0.03131626       0.14801678       0.01537260
C       -2.45990000       5.68107000      13.67592904       0.00399642       0.02054847       0.03242213
C       -3.68993000       7.81154000      13.67603312      -0.00381972       0.00110781       0.03419392
C       -4.91995000       9.94200000      13.67592882       0.01856622      -0.00467525       0.03240990
C       -6.14990000      12.07234000      13.67657046       0.11112875      -0.09902356       0.01542056
C        2.45998000       1.42027000      13.67657070       0.14633073      -0.04758887       0.01535446
C        1.22995000       3.55073000      13.67657059       0.03434435       0.14796788       0.01535751
C        0.00000000       5.68107000      13.67571967       0.00152311      -0.00307453       0.03578076
C       -1.23002000       7.81154000      13.67604623      -0.00036065      -0.00207875       0.03447264
C       -2.46005000       9.94200000      13.67604600       0.00062832      -0.00212610       0.03446313
C       -3.69000000      12.07234000      13.67571971      -0.00298496       0.00460114       0.03577821
C        4.92002000       1.42027000      13.67592899       0.00901834      -0.01420830       0.03242365
C        3.69000000       3.55073000      13.67594188       0.02119812       0.01071869       0.03955106
C        2.46005000       5.68107000      13.67592900      -0.01122577       0.02086817       0.03242319
C        1.23002000       7.81154000      13.67604648      -0.00131374      -0.00172245       0.03448245
C        0.00000000       9.94200000      13.67605470      -0.00049256      -0.00205616       0.03468135
C       -1.22995000      12.07234000      13.67604640      -0.00538563       0.00547616       0.03448088
C        7.38007000       1.42027000      13.67603312      -0.00366503       0.00160832       0.03419428
C        6.15005000       3.55073000      13.67603090       0.00456386      -0.00686503       0.03432631
C        4.92010000       5.68107000      13.67603110      -0.00512424       0.00965439       0.03433499
C        3.69007000       7.81154000      13.67603312      -0.00351253       0.00110833       0.03419390
C        2.46005000       9.94200000      13.67604619       0.00240232      -0.00209577       0.03447085
C        1.23010000      12.07234000      13.67604641      -0.00186184       0.00515158       0.03447939
C        9.83998000       1.42027000      13.67592910      -0.01066598      -0.01454839       0.03241512
C        8.60995000       3.55073000      13.67603073      -0.00153145      -0.00689443       0.03431764
C        7.38000000       5.68107000      13.67605218       0.00152608       0.00211768       0.03488053
C        6.14998000       7.81154000      13.67603096      -0.00578855      -0.00144325       0.03432785
C        4.91995000       9.94200000      13.67592880      -0.01554050      -0.00470756       0.03240229
C        3.69000000      12.07234000      13.67571991       0.00603883       0.00460496       0.03578004
C       12.30002000       1.42027000      13.67657016      -0.14792734      -0.04726160       0.01537709
C       11.07000000       3.55073000      13.67594204      -0.02218515       0.01070664       0.03954466
C        9.84005000       5.68107000      13.67603114      -0.00211552       0.00998077       0.03433628
C        8.61002000       7.81154000      13.67603119       0.00411712      -0.00108444       0.03433802
C        7.38000000       9.94200000      13.67594191      -0.00049347      -0.02709617       0.03954320
C        6.15005000      12.07234000      13.67656978      -0.11833151      -0.09869803       0.01541291
C        0.00000000       0.00000000      10.31771197      -0.00352968      -0.37878950      -0.28203308
C       -1.23002000       2.13047000      10.31771539      -0.33062650       0.18805354      -0.28189812
C       12.30002000       4.26080000      10.32367483      -0.01767569      -0.02721976      -0.03325661
C       -3.69000000       6.39127000      10.32383990       0.00186028       0.01518263      -0.03374624
C       -4.92002000       8.52173000      10.32384055       0.01332157      -0.00397975      -0.03373527
C       -6.14998000      10.65207000      10.32367520      -0.03610657       0.00458738      -0.03325288
C        2.46005000       0.00000000      10.32474658       0.17007173      -0.09871123      -0.03575000
C        1.23002000       2.13047000      10.31771483       0.32906451       0.18775624      -0.28199154
C        0.00007000       4.26080000      10.32474635      -0.00356912       0.20300903      -0.03573733
C       -1.22995000       6.39127000      10.32385064       0.00515874      -0.00252959      -0.03291374
C       -2.45998000       8.52173000      10.32379340      -0.00428439      -0.00413191      -0.03401386
C       -3.68993000      10.65207000      10.32385133      -0.00257258       0.01196866      -0.03290456
C        4.91995000       0.00000000      10.32385111      -0.00653038      -0.00422990      -0.03290797
C        3.68993000       2.13047000      10.32367567      -0.01434674       0.02492317      -0.03324285
C        2.45998000       4.26080000      10.32367548       0.01605242      -0.02755461      -0.03324465
C        1.22995000       6.39127000      10.32385102      -0.00756400      -0.00268200      -0.03290741
C       -0.00007000       8.52173000      10.32378294       0.00409315      -0.00485894      -0.03447119
C       -1.23002000      10.65207000      10.32378263      -0.00103123       0.00341774      -0.03447775
C        7.38000000       0.00000000      10.32379250      -0.00330506       0.00612290      -0.03403262
C        6.14998000       2.13047000      10.32384053       0.00816637      -0.01356918      -0.03373321
C        4.92002000       4.26080000      10.32384478       0.00290163       0.00597515      -0.03281903
C        3.69000000       6.39127000      10.32383994      -0.00848186       0.01518408      -0.03374627
C        2.45998000       8.52173000      10.32379311       0.00270701      -0.00382951      -0.03402030
C        1.23002000      10.65207000      10.32378209      -0.00063592       0.00381683      -0.03448945
C        9.84005000       0.00000000      10.32385072       0.00413143      -0.00409122      -0.03291521
C        8.61002000       2.13047000      10.32384087      -0.00972021      -0.01386850      -0.03372745
C        7.38007000       4.26080000      10.32379431      -0.00365305       0.00287128      -0.03492246
C        6.15005000       6.39127000      10.32379397      -0.00337863       0.00120501      -0.03492953
C        4.92002000       8.52173000      10.32384083      -0.01490004      -0.00428214      -0.03372808
C        3.69007000      10.65207000      10.32385115      -0.00467941       0.01200136      -0.03290720
C       12.29995000       0.00000000      10.32474658      -0.17223659      -0.09874467      -0.03570581
C       11.06993000       2.13047000      10.32367577       0.02244648       0.02490922      -0.03323892
C        9.83998000       4.26080000      10.32384532      -0.00455529       0.00557668      -0.03280835
C        8.60995000       6.39127000      10.32379425       0.00097297       0.00105851      -0.03492367
C        7.37993000       8.52173000      10.32384560       0.00408498      -0.00891830      -0.03280318
C        6.14998000      10.65207000      10.32367548       0.03448303       0.00421913      -0.03323958
C        1.22995000       0.71020000      10.31813704       0.32638941      -0.18915458      -0.28443956
C        0.00000000       2.84053000      10.31813793       0.00045979       0.37568341      -0.28435739
C       -1.23002000       4.97100000      10.32379294       0.03716255      -0.00443181      -0.03309797
C       -2.46005000       7.10147000      10.32399157      -0.01080061      -0.00071373      -0.03375285
C       -3.69000000       9.23180000      10.32399165      -0.00464452      -0.01106694      -0.03374342
C       -4.92002000      11.36227000      10.32379248       0.01779756       0.02896188      -0.03310005
C        3.69000000       0.71020000      10.32379281      -0.02086163      -0.03059981      -0.03308848
C        2.46005000       2.84053000      10.32482667       0.16995240       0.10331911      -0.03821490
C        1.23002000       4.97100000      10.32379305      -0.03554755      -0.00409491      -0.03309004
C        0.00000000       7.10147000      10.32400189      -0.00152814       0.00400359      -0.03263218
C       -1.22995000       9.23180000      10.32395219      -0.00379602       0.00291441      -0.03487979
C       -2.45998000      11.36227000      10.32400181       0.00438322      -0.00493391      -0.03263142
C        6.14990000       0.71020000      10.32399156       0.01288946       0.00880955      -0.03375082
C        4.91995000       2.84053000      10.32400045      -0.00685956       0.00836590      -0.03242309
C        3.68993000       4.97100000      10.32400012       0.00443555      -0.01130306      -0.03243445
C        2.45990000       7.10147000      10.32399158       0.01803835      -0.00039652      -0.03375073
C        1.22995000       9.23180000      10.32395200       0.00075883       0.00288209      -0.03488787
C       -0.00007000      11.36227000      10.32395176       0.00366710      -0.00223665      -0.03489879
C        8.60995000       0.71020000      10.32399154      -0.00566397       0.00848380      -0.03375223
C        7.38000000       2.84053000      10.32395594       0.00048949      -0.00162534      -0.03383008
C        6.14998000       4.97100000      10.32394134       0.00059056      -0.00321254      -0.03441989
C        4.91995000       7.10147000      10.32395575      -0.00022795      -0.00088405      -0.03383881
C        3.69000000       9.23180000      10.32399168       0.00563242      -0.01106111      -0.03374384
C        2.45998000      11.36227000      10.32400161      -0.00271869      -0.00528497      -0.03264259
C       11.07000000       0.71020000      10.32379310       0.01782259      -0.03057449      -0.03308999