149
Lattice="14.963600159 0.0 0.0 -7.481800079 12.958857869 0.0 0.0 0.0 24.0" Properties=species:S:1:pos:R:3:forces:R:3 energy=-1376.2668709598195 stress="-0.06602502023463372 3.830888914171089e-07 -1.7060225449382987e-18 3.830888914171089e-07 -0.06602573679174449 6.121339740712561e-18 -1.7060225449382987e-18 6.121339740712561e-18 -0.0035694994572911492" free_energy=-1376.2668709598195 pbc="T T T"
C        0.00000000       0.00000000      13.67500000      -0.12133583      -0.25685706       0.25330132
C       -5.05523000       9.45647000      13.67500000       0.00634933       0.00644645       0.05093054
C       -5.25746000      11.90815000      13.67500000       0.10523031      -0.15206412       0.02488575
C       -2.62881000       5.95408000      13.67500000      -0.00179629       0.00370795       0.05148965
C       -2.83089000       8.40576000      13.67500000      -0.00580958       0.00254655       0.05311566
C       -3.03312000      10.85745000      13.67500000      -0.00895401      -0.00361085       0.05093164
C       -0.20223000       2.45169000      13.67500000      -0.16194621       0.23322189       0.25330033
C       -0.40447000       4.90337000      13.67500000      -0.02304850      -0.02161103       0.05754209
C       -0.60670000       7.35506000      13.67500000       0.00922761       0.00907431       0.05170037
C       -0.80893000       9.80675000      13.67500000       0.00315181       0.00014007       0.05285815
C       -1.01102000      12.25843000      13.67500000       0.00219322      -0.01334095       0.05169640
C        2.02211000       1.40098000      13.67500000       0.28294639       0.02347821       0.25329502
C        1.81987000       3.85267000      13.67500000       0.07909577       0.16734394       0.02488496
C        1.61764000       6.30435000      13.67500000       0.00715394      -0.00491927       0.05094000
C        1.41541000       8.75604000      13.67500000       0.00044205      -0.00145638       0.05286861
C        1.21325000      11.20760000      13.67500000       0.00058221       0.00109711       0.05285903
C        4.24645000       0.35028000      13.67500000      -0.00738983       0.03091776       0.05753989
C        4.04421000       2.80196000      13.67500000      -0.00226725      -0.03151637       0.05754878
C        3.84198000       5.25365000      13.67500000      -0.00663157       0.00059477       0.05094334
C        3.63982000       7.70521000      13.67500000      -0.00169990       0.00014194       0.05312622
C        3.43759000      10.15689000      13.67500000      -0.01262796       0.00313367       0.05170624
C        3.23535000      12.60858000      13.67500000       0.00114631       0.00890149       0.05092869
C        6.26855000       1.75126000      13.67500000       0.00832033      -0.00024905       0.05149562
C        6.06639000       4.20282000      13.67500000       0.00146590       0.01572620       0.05169345
C        5.86416000       6.65450000      13.67500000       0.00003259      -0.00278255       0.05281897
C        5.66193000       9.10619000      13.67500000      -0.00300349      -0.00648314       0.05149584
C        5.45969000      11.55788000      13.67500000       0.03097091      -0.00959755       0.05754661
C        8.49282000       0.70043000      13.67500000       0.00462838      -0.00115529       0.05312190
C        8.29073000       3.15211000      13.67500000      -0.00137364       0.00135468       0.05279819
C        8.08850000       5.60380000      13.67500000      -0.00084585       0.00012174       0.05292593
C        7.88627000       8.05549000      13.67500000       0.01010969      -0.00824694       0.05170869
C        7.68403000      10.50717000      13.67500000      -0.02667252       0.01798489       0.05754461
C       10.51492000       2.10141000      13.67500000       0.00300266      -0.00893254       0.05093280
C       10.31269000       4.55309000      13.67500000      -0.00953667      -0.00612353       0.05169692
C       10.11061000       7.00478000      13.67500000      -0.00286384       0.00206850       0.05280998
C       12.73926000       1.05070000      13.67500000      -0.18451493      -0.01497008       0.02488316
C       12.53703000       3.50239000      13.67500000       0.02857862       0.01435703       0.05753609
C       -5.86409000      10.62393000      13.67500000       0.02344069       0.02194831       0.05754725
C       -3.43751000       7.12154000      13.67500000      -0.00122267      -0.00125828       0.05312006
C       -3.63975000       9.57323000      13.67500000       0.00372835      -0.00539332       0.05149327
C       -3.84198000      12.02491000      13.67500000      -0.02868417      -0.01399356       0.05754018
C       -1.01109000       3.61915000      13.67500000      -0.10533766       0.15218988       0.02488058
C       -1.21332000       6.07084000      13.67500000      -0.00582468      -0.00704705       0.05093358
C       -1.41556000       8.52252000      13.67500000       0.00693279      -0.00077983       0.05279802
C       -1.61764000      10.97421000      13.67500000       0.00922024       0.00610362       0.05169512
C        1.41548000       0.11676000      13.67500000       0.16203235      -0.23359685       0.25329716
C        1.21325000       2.56845000      13.67500000       0.12143062       0.25660449       0.25329648
C        1.01102000       5.02013000      13.67500000       0.02634864      -0.01749502       0.05754562
C        0.80878000       7.47182000      13.67500000      -0.01042197       0.00762231       0.05169985
C        0.60655000       9.92350000      13.67500000       0.00090108      -0.00297630       0.05291551
C        0.40439000      12.37506000      13.67500000      -0.00028386       0.00013202       0.05280673
C        3.43759000       1.51774000      13.67500000       0.18455102       0.01533607       0.02488268
C        3.23535000       3.96943000      13.67500000      -0.03055707       0.00922299       0.05754303
C        3.03312000       6.42111000      13.67500000       0.00331938       0.00349547       0.05148953
C        2.83096000       8.87267000      13.67500000      -0.00176546       0.00461221       0.05282616
C        2.62873000      11.32436000      13.67500000      -0.00150007      -0.01334263       0.05170422
C        5.66193000       0.46704000      13.67500000      -0.00241982       0.00891178       0.05093074
C        5.45969000       2.91872000      13.67500000      -0.00053486      -0.01171639       0.05092480
C        5.25754000       5.37028000      13.67500000       0.01022430      -0.00142097       0.05171331
C        5.05530000       7.82197000      13.67500000       0.00153133       0.00228754       0.05313653
C        4.85307000      10.27365000      13.67500000       0.00896063      -0.00193739       0.05093767
C        4.65084000      12.72534000      13.67500000       0.00170319       0.03190935       0.05754720
C        7.68411000       1.86789000      13.67500000      -0.00794471       0.00154532       0.05312908
C        7.48187000       4.31958000      13.67500000      -0.00069747       0.00135855       0.05286466
C        7.27964000       6.77126000      13.67500000       0.00167569       0.00020578       0.05286879
C        7.07741000       9.22295000      13.67500000      -0.00726823       0.00515949       0.05093658
C        6.87518000      11.67464000      13.67500000      -0.07944836      -0.16769520       0.02488614
C        9.90830000       0.81719000      13.67500000      -0.00629802      -0.00094721       0.05149175
C        9.70606000       3.26887000      13.67500000       0.00069920       0.01294003       0.05169056
C        9.50398000       5.72056000      13.67500000      -0.00244682       0.00018074       0.05286144
C        9.30175000       8.17224000      13.67500000      -0.00893513      -0.00947530       0.05169916
C       11.93040000       2.21817000      13.67500000       0.00729293      -0.03145791       0.05753810
C       11.72817000       4.66985000      13.67500000       0.00832213       0.00333931       0.05092927
C       14.15474000       1.16746000      13.67500000      -0.28303252      -0.02301676       0.25329758
C        0.00000000       0.00000000      10.32500000      -0.12133583      -0.25685706      -0.25330132
C       -5.05523000       9.45647000      10.32500000       0.00634933       0.00644645      -0.05093054
C       -5.25746000      11.90815000      10.32500000       0.10523031      -0.15206412      -0.02488575
C       -2.62881000       5.95408000      10.32500000      -0.00179629       0.00370795      -0.05148965
C       -2.83089000       8.40576000      10.32500000      -0.00580958       0.00254655      -0.05311566
C       -3.03312000      10.85745000      10.32500000      -0.00895401      -0.00361085      -0.05093164
C       -0.20223000       2.45169000      10.32500000      -0.16194621       0.23322189      -0.25330033
C       -0.40447000       4.90337000      10.32500000      -0.02304850      -0.02161103      -0.05754209
C       -0.60670000       7.35506000      10.32500000       0.00922761       0.00907431      -0.05170037
C       -0.80893000       9.80675000      10.32500000       0.00315181       0.00014007      -0.05285815
C       -1.01102000      12.25843000      10.32500000       0.00219322      -0.01334095      -0.05169640
C        2.02211000       1.40098000      10.32500000       0.28294639       0.02347821      -0.25329502
C        1.81987000       3.85267000      10.32500000       0.07909577       0.16734394      -0.02488496
C        1.61764000       6.30435000      10.32500000       0.00715394      -0.00491927      -0.05094000
C        1.41541000       8.75604000      10.32500000       0.00044205      -0.00145638      -0.05286861
C        1.21325000      11.20760000      10.32500000       0.00058221       0.00109711      -0.05285903
C        4.24645000       0.35028000      10.32500000      -0.00738983       0.03091776      -0.05753989
C        4.04421000       2.80196000      10.32500000      -0.00226725      -0.03151637      -0.05754878
C        3.84198000       5.25365000      10.32500000      -0.00663157       0.00059477      -0.05094334
C        3.63982000       7.70521000      10.32500000      -0.00169990       0.00014194      -0.05312622
C        3.43759000      10.15689000      10.32500000      -0.01262796       0.00313367      -0.05170624
C        3.23535000      12.60858000      10.32500000       0.00114631       0.00890149      -0.05092869
C        6.26855000       1.75126000      10.32500000       0.00832033      -0.00024905      -0.05149562
C        6.06639000       4.20282000      10.32500000       0.00146590       0.01572620      -0.05169345
C        5.86416000       6.65450000      10.32500000       0.00003259      -0.00278255      -0.05281897
C        5.66193000       9.10619000      10.32500000      -0.00300349      -0.00648314      -0.05149584
C        5.45969000      11.55788000      10.32500000       0.03097091      -0.00959755      -0.05754661
C        8.49282000       0.70043000      10.32500000       0.00462838      -0.00115529      -0.05312190
C        8.29073000       3.15211000      10.32500000      -0.00137364       0.00135468      -0.05279819
C        8.08850000       5.60380000      10.32500000      -0.00084585       0.00012174      -0.05292593
C        7.88627000       8.05549000      10.32500000       0.01010969      -0.00824694      -0.05170869
C        7.68403000      10.50717000      10.32500000      -0.02667252       0.01798489      -0.05754461
C       10.51492000       2.10141000      10.32500000       0.00300266      -0.00893254      -0.05093280
C       10.31269000       4.55309000      10.32500000      -0.00953667      -0.00612353      -0.05169692
C       10.11061000       7.00478000      10.32500000      -0.00286384       0.00206850      -0.05280998
C       12.73926000       1.05070000      10.32500000      -0.18451493      -0.01497008      -0.02488316
C       12.53703000       3.50239000      10.32500000       0.02857862       0.01435703      -0.05753609
C       -5.86409000      10.62393000      10.32500000       0.02344069       0.02194831      -0.05754725
C       -3.43751000       7.12154000      10.32500000      -0.00122267      -0.00125828      -0.05312006
C       -3.63975000       9.57323000      10.32500000       0.00372835      -0.00539332      -0.05149327
C       -3.84198000      12.02491000      10.32500000      -0.02868417      -0.01399356      -0.05754018
C       -1.01109000       3.61915000      10.32500000      -0.10533766       0.15218988      -0.02488058
C       -1.21332000       6.07084000      10.32500000      -0.00582468      -0.00704705      -0.05093358
C       -1.41556000       8.52252000      10.32500000       0.00693279      -0.00077983      -0.05279802
C       -1.61764000      10.97421000      10.32500000       0.00922024       0.00610362      -0.05169512
C        1.41548000       0.11676000      10.32500000       0.16203235      -0.23359685      -0.25329716
C        1.21325000       2.56845000      10.32500000       0.12143062       0.25660449      -0.25329648
C        1.01102000       5.02013000      10.32500000       0.02634864      -0.01749502      -0.05754562
C        0.80878000       7.47182000      10.32500000      -0.01042197       0.00762231      -0.05169985
C        0.60655000       9.92350000      10.32500000       0.00090108      -0.00297630      -0.05291551
C        0.40439000      12.37506000      10.32500000      -0.00028386       0.00013202      -0.05280673
C        3.43759000       1.51774000      10.32500000       0.18455102       0.01533607      -0.02488268
C        3.23535000       3.96943000      10.32500000      -0.03055707       0.00922299      -0.05754303
C        3.03312000       6.42111000      10.32500000       0.00331938       0.00349547      -0.05148953
C        2.83096000       8.87267000      10.32500000      -0.00176546       0.00461221      -0.05282616
C        2.62873000      11.32436000      10.32500000      -0.00150007      -0.01334263      -0.05170422
C        5.66193000       0.46704000      10.32500000      -0.00241982       0.00891178      -0.05093074
C        5.45969000       2.91872000      10.32500000      -0.00053486      -0.01171639      -0.05092480
C        5.25754000       5.37028000      10.32500000       0.01022430      -0.00142097      -0.05171331
C        5.05530000       7.82197000      10.32500000       0.00153133       0.00228754      -0.05313653
C        4.85307000      10.27365000      10.32500000       0.00896063      -0.00193739      -0.05093767
C        4.65084000      12.72534000      10.32500000       0.00170319       0.03190935      -0.05754720
C        7.68411000       1.86789000      10.32500000      -0.00794471       0.00154532      -0.05312908
C        7.48187000       4.31958000      10.32500000      -0.00069747       0.00135855      -0.05286466
C        7.27964000       6.77126000      10.32500000       0.00167569       0.00020578      -0.05286879
C        7.07741000       9.22295000      10.32500000      -0.00726823       0.00515949      -0.05093658
C        6.87518000      11.67464000      10.32500000      -0.07944836      -0.16769520      -0.02488614
C        9.90830000       0.81719000      10.32500000      -0.00629802      -0.00094721      -0.05149175
C        9.70606000       3.26887000      10.32500000       0.00069920       0.01294003      -0.05169056
C        9.50398000       5.72056000      10.32500000      -0.00244682       0.00018074      -0.05286144
C        9.30175000       8.17224000      10.32500000      -0.00893513      -0.00947530      -0.05169916
C       11.93040000       2.21817000      10.32500000       0.00729293      -0.03145791      -0.05753810
C       11.72817000       4.66985000      10.32500000       0.00832213       0.00333931      -0.05092927
C       14.15474000       1.16746000      10.32500000      -0.28303252      -0.02301676      -0.25329758
Li       0.60662000       1.28422000      12.00000000      -0.00000230       0.00000450       0.00000000
149
Lattice="14.963600159 0.0 0.0 -7.481800079 12.958857869 0.0 0.0 0.0 24.0" Properties=species:S:1:pos:R:3:forces:R:3 energy=-1376.4713790233432 stress="-0.06624998547093307 3.794864755914958e-07 2.221923806204855e-18 3.794864755914958e-07 -0.0662506984581762 2.6414464445772132e-18 2.221923806204855e-18 2.6414464445772132e-18 -0.0027627619227340895" free_energy=-1376.4713790233432 pbc="T T T"
C        0.00000000       0.00000000      13.75099039      -0.12473566      -0.26405769      -0.01325299
C       -5.05523000       9.45647000      13.69027916       0.00860606       0.00098873       0.04111386
C       -5.25746000      11.90815000      13.68246572       0.08792073      -0.12708179       0.36487112
C       -2.62881000       5.95408000      13.69044689      -0.00274153       0.00511891       0.03788281
C       -2.83089000       8.40576000      13.69093470      -0.00599609       0.00271306       0.04147567
C       -3.03312000      10.85745000      13.69027949      -0.00465131      -0.00761247       0.04101445
C       -0.20223000       2.45169000      13.75099010      -0.16648138       0.23977325      -0.01325944
C       -0.40447000       4.90337000      13.69226263      -0.02633888      -0.02085993      -0.03456371
C       -0.60670000       7.35506000      13.69051011       0.00786078       0.00830777       0.04578510
C       -0.80893000       9.80675000      13.69085744       0.00250963       0.00033361       0.04223780
C       -1.01102000      12.25843000      13.69050892       0.00221320      -0.01177344       0.04580223
C        2.02211000       1.40098000      13.75098851       0.29088559       0.02412991      -0.01324253
C        1.81987000       3.85267000      13.68246549       0.06611414       0.13986272       0.36486146
C        1.61764000       6.30435000      13.69028200       0.00847268       0.00080569       0.04099361
C        1.41541000       8.75604000      13.69086058       0.00059030      -0.00210869       0.04225611
C        1.21325000      11.20760000      13.69085771       0.00106461       0.00155256       0.04226592
C        4.24645000       0.35028000      13.69226197      -0.00509228       0.03339101      -0.03457230
C        4.04421000       2.80196000      13.69226463       0.00040535      -0.03358211      -0.03461464
C        3.84198000       5.25365000      13.69028300      -0.00304249       0.00527718       0.04108310
C        3.63982000       7.70521000      13.69093786      -0.00174962      -0.00011986       0.04150282
C        3.43759000      10.15689000      13.69051187      -0.01127741       0.00233494       0.04582919
C        3.23535000      12.60858000      13.69027861      -0.00447315       0.00717799       0.04103994
C        6.26855000       1.75126000      13.69044869       0.01000267      -0.00013527       0.03787069
C        6.06639000       4.20282000      13.69050803       0.00172782       0.01420431       0.04575687
C        5.86416000       6.65450000      13.69084569      -0.00043317      -0.00272458       0.04329067
C        5.66193000       9.10619000      13.69044875      -0.00374713      -0.00800141       0.03790425
C        5.45969000      11.55788000      13.69226398       0.03196385      -0.01282251      -0.03456621
C        8.49282000       0.70043000      13.69093657       0.00486922      -0.00106172       0.04148446
C        8.29073000       3.15211000      13.69083946      -0.00117958       0.00092224       0.04330068
C        8.08850000       5.60380000      13.69087778      -0.00084217       0.00012453       0.04518972
C        7.88627000       8.05549000      13.69051261       0.00866678      -0.00772285       0.04571236
C        7.68403000      10.50717000      13.69226338      -0.02979478       0.01670229      -0.03457813
C       10.51492000       2.10141000      13.69027984      -0.00285159      -0.00815476       0.04108184
C       10.31269000       4.55309000      13.69050908      -0.00836409      -0.00513105       0.04571317
C       10.11061000       7.00478000      13.69084299      -0.00258092       0.00244247       0.04326174
C       12.73926000       1.05070000      13.68246495      -0.15422336      -0.01247193       0.36486881
C       12.53703000       3.50239000      13.69226083       0.02903088       0.01770304      -0.03458299
C       -5.86409000      10.62393000      13.69226418       0.02673153       0.02119765      -0.03457615
C       -3.43751000       7.12154000      13.69093602      -0.00102075      -0.00142943       0.04146887
C       -3.63975000       9.57323000      13.69044798       0.00467062      -0.00680026       0.03786360
C       -3.84198000      12.02491000      13.69226205      -0.02913571      -0.01734019      -0.03457925
C       -1.01109000       3.61915000      13.68246417      -0.08802733       0.12720546       0.36486615
C       -1.21332000       6.07084000      13.69028008      -0.00808349      -0.00159116       0.04109453
C       -1.41556000       8.52252000      13.69083940       0.00663809      -0.00115574       0.04328764
C       -1.61764000      10.97421000      13.69050854       0.00804622       0.00511323       0.04572744
C        1.41548000       0.11676000      13.75098915       0.16656453      -0.24014158      -0.01324730
C        1.21325000       2.56845000      13.75098894       0.12483006       0.26380728      -0.01323919
C        1.01102000       5.02013000      13.69226368       0.02947285      -0.01621320      -0.03457717
C        0.80878000       7.47182000      13.69050995      -0.00897938       0.00709832       0.04574872
C        0.60655000       9.92350000      13.69087465       0.00090450      -0.00297084       0.04520678
C        0.40439000      12.37506000      13.69084202      -0.00047064       0.00056580       0.04326532
C        3.43759000       1.51774000      13.68246481       0.15425911       0.01283854       0.36487171
C        3.23535000       3.96943000      13.69226291      -0.03155126       0.01244772      -0.03454398
C        3.03312000       6.42111000      13.69044686       0.00406771       0.00502111       0.03791837
C        2.83096000       8.87267000      13.69084785      -0.00129268       0.00455614       0.04324208
C        2.62873000      11.32436000      13.69051127      -0.00176966      -0.01182882       0.04570992
C        5.66193000       0.46704000      13.69027922       0.00343542       0.00813316       0.04110589
C        5.45969000       2.91872000      13.69027744       0.00508847      -0.00998211       0.04103938
C        5.25754000       5.37028000      13.69051399       0.00888367      -0.00062065       0.04578590
C        5.05530000       7.82197000      13.69094096       0.00157494       0.00254287       0.04145374
C        4.85307000      10.27365000      13.69028130       0.00536154      -0.00662175       0.04109841
C        4.65084000      12.72534000      13.69226416      -0.00096692       0.03397404      -0.03459637
C        7.68411000       1.86789000      13.69093872      -0.00817858       0.00145519       0.04144221
C        7.48187000       4.31958000      13.69085940      -0.00118486       0.00089548       0.04223052
C        7.27964000       6.77126000      13.69086064       0.00151846       0.00085578       0.04227450
C        7.07741000       9.22295000      13.69028098      -0.00858529      -0.00056789       0.04102388
C        6.87518000      11.67464000      13.68246584      -0.06646531      -0.14021043       0.36487187
C        9.90830000       0.81719000      13.69044753      -0.00798832      -0.00106335       0.03787436
C        9.70606000       3.26887000      13.69050717       0.00067205       0.01136995       0.04581042
C        9.50398000       5.72056000      13.69085843      -0.00180478      -0.00001584       0.04227035
C        9.30175000       8.17224000      13.69050975      -0.00756761      -0.00870534       0.04581602
C       11.93040000       2.21817000      13.69226143       0.00499680      -0.03393177      -0.03456539
C       11.72817000       4.66985000      13.69027878       0.00402078       0.00734306       0.04101226
C       14.15474000       1.16746000      13.75098927      -0.29097008      -0.02367619      -0.01323726
C        0.00000000       0.00000000      10.24900961      -0.12473566      -0.26405769       0.01325299
C       -5.05523000       9.45647000      10.30972084       0.00860606       0.00098873      -0.04111386
C       -5.25746000      11.90815000      10.31753428       0.08792073      -0.12708179      -0.36487112
C       -2.62881000       5.95408000      10.30955311      -0.00274153       0.00511891      -0.03788281
C       -2.83089000       8.40576000      10.30906530      -0.00599609       0.00271306      -0.04147567
C       -3.03312000      10.85745000      10.30972051      -0.00465131      -0.00761247      -0.04101445
C       -0.20223000       2.45169000      10.24900990      -0.16648138       0.23977325       0.01325944
C       -0.40447000       4.90337000      10.30773737      -0.02633888      -0.02085993       0.03456371
C       -0.60670000       7.35506000      10.30948989       0.00786078       0.00830777      -0.04578510
C       -0.80893000       9.80675000      10.30914256       0.00250963       0.00033361      -0.04223780
C       -1.01102000      12.25843000      10.30949108       0.00221320      -0.01177344      -0.04580223
C        2.02211000       1.40098000      10.24901149       0.29088559       0.02412991       0.01324253
C        1.81987000       3.85267000      10.31753451       0.06611414       0.13986272      -0.36486146
C        1.61764000       6.30435000      10.30971800       0.00847268       0.00080569      -0.04099361
C        1.41541000       8.75604000      10.30913942       0.00059030      -0.00210869      -0.04225611
C        1.21325000      11.20760000      10.30914229       0.00106461       0.00155256      -0.04226592
C        4.24645000       0.35028000      10.30773803      -0.00509228       0.03339101       0.03457230
C        4.04421000       2.80196000      10.30773537       0.00040535      -0.03358211       0.03461464
C        3.84198000       5.25365000      10.30971700      -0.00304249       0.00527718      -0.04108310
C        3.63982000       7.70521000      10.30906214      -0.00174962      -0.00011986      -0.04150282
C        3.43759000      10.15689000      10.30948813      -0.01127741       0.00233494      -0.04582919
C        3.23535000      12.60858000      10.30972139      -0.00447315       0.00717799      -0.04103994
C        6.26855000       1.75126000      10.30955131       0.01000267      -0.00013527      -0.03787069
C        6.06639000       4.20282000      10.30949197       0.00172782       0.01420431      -0.04575687
C        5.86416000       6.65450000      10.30915431      -0.00043317      -0.00272458      -0.04329067
C        5.66193000       9.10619000      10.30955125      -0.00374713      -0.00800141      -0.03790425
C        5.45969000      11.55788000      10.30773602       0.03196385      -0.01282251       0.03456621
C        8.49282000       0.70043000      10.30906343       0.00486922      -0.00106172      -0.04148446
C        8.29073000       3.15211000      10.30916054      -0.00117958       0.00092224      -0.04330068
C        8.08850000       5.60380000      10.30912222      -0.00084217       0.00012453      -0.04518972
C        7.88627000       8.05549000      10.30948739       0.00866678      -0.00772285      -0.04571236
C        7.68403000      10.50717000      10.30773662      -0.02979478       0.01670229       0.03457813
C       10.51492000       2.10141000      10.30972016      -0.00285159      -0.00815476      -0.04108184
C       10.31269000       4.55309000      10.30949092      -0.00836409      -0.00513105      -0.04571317
C       10.11061000       7.00478000      10.30915701      -0.00258092       0.00244247      -0.04326174
C       12.73926000       1.05070000      10.31753505      -0.15422336      -0.01247193      -0.36486881
C       12.53703000       3.50239000      10.30773917       0.02903088       0.01770304       0.03458299
C       -5.86409000      10.62393000      10.30773582       0.02673153       0.02119765       0.03457615
C       -3.43751000       7.12154000      10.30906398      -0.00102075      -0.00142943      -0.04146887
C       -3.63975000       9.57323000      10.30955202       0.00467062      -0.00680026      -0.03786360
C       -3.84198000      12.02491000      10.30773795      -0.02913571      -0.01734019       0.03457925
C       -1.01109000       3.61915000      10.31753583      -0.08802733       0.12720546      -0.36486615
C       -1.21332000       6.07084000      10.30971992      -0.00808349      -0.00159116      -0.04109453
C       -1.41556000       8.52252000      10.30916060       0.00663809      -0.00115574      -0.04328764
C       -1.61764000      10.97421000      10.30949146       0.00804622       0.00511323      -0.04572744
C        1.41548000       0.11676000      10.24901085       0.16656453      -0.24014158       0.01324730
C        1.21325000       2.56845000      10.24901106       0.12483006       0.26380728       0.01323919
C        1.01102000       5.02013000      10.30773632       0.02947285      -0.01621320       0.03457717
C        0.80878000       7.47182000      10.30949005      -0.00897938       0.00709832      -0.04574872
C        0.60655000       9.92350000      10.30912535       0.00090450      -0.00297084      -0.04520678
C        0.40439000      12.37506000      10.30915798      -0.00047064       0.00056580      -0.04326532
C        3.43759000       1.51774000      10.31753519       0.15425911       0.01283854      -0.36487171
C        3.23535000       3.96943000      10.30773709      -0.03155126       0.01244772       0.03454398
C        3.03312000       6.42111000      10.30955314       0.00406771       0.00502111      -0.03791837
C        2.83096000       8.87267000      10.30915215      -0.00129268       0.00455614      -0.04324208