149
Lattice="14.963600159 0.0 0.0 -7.481800079 12.958857869 0.0 0.0 0.0 24.0" Properties=species:S:1:pos:R:3:forces:R:3 energy=-1376.0137481867635 stress="-0.06570002116674381 3.8546089877989975e-07 -1.5327281761799438e-09 3.8546089877989975e-07 -0.06570074031310148 2.29224961552791e-09 -1.5327281761799438e-09 2.29224961552791e-09 -0.0037517580717648553" free_energy=-1376.0137481867635 pbc="T T T"
C        0.00000000       0.00000000      13.67500000      -0.13083742      -0.27697314       0.22555486
C       -5.05523000       9.45647000      13.67500000       0.00500471       0.00833069       0.03556810
C       -5.25746000      11.90815000      13.67500000       0.11243973      -0.16246891       0.00784834
C       -2.62881000       5.95408000      13.67500000      -0.00168630       0.00354355       0.03574202
C       -2.83089000       8.40576000      13.67500000      -0.00569012       0.00239530       0.03756207
C       -3.03312000      10.85745000      13.67500000      -0.01024834      -0.00169275       0.03556667
C       -0.20223000       2.45169000      13.67500000      -0.17461920       0.25150143       0.22555125
C       -0.40447000       4.90337000      13.67500000      -0.02569742      -0.01128473       0.04101242
C       -0.60670000       7.35506000      13.67500000       0.00930511       0.00857883       0.03594335
C       -0.80893000       9.80675000      13.67500000       0.00319747       0.00003945       0.03739200
C       -1.01102000      12.25843000      13.67500000       0.00173096      -0.01315468       0.03593964
C        2.02211000       1.40098000      13.67500000       0.30511167       0.02531144       0.22554513
C        1.81987000       3.85267000      13.67500000       0.08450457       0.17879073       0.00784744
C        1.61764000       6.30435000      13.67500000       0.00614613      -0.00699478       0.03557584
C        1.41541000       8.75604000      13.67500000       0.00050099      -0.00136251       0.03740659
C        1.21325000      11.20760000      13.67500000       0.00045942       0.00109993       0.03739111
C        4.24645000       0.35028000      13.67500000       0.00288220       0.02804871       0.04100780
C        4.04421000       2.80196000      13.67500000       0.00740035      -0.02699963       0.04101632
C        3.84198000       5.25365000      13.67500000      -0.00760518      -0.00150617       0.03558167
C        3.63982000       7.70521000      13.67500000      -0.00162797       0.00029375       0.03757301
C        3.43759000      10.15689000      13.67500000      -0.01222913       0.00344985       0.03595178
C        3.23535000      12.60858000      13.67500000       0.00345615       0.00906286       0.03556788
C        6.26855000       1.75126000      13.67500000       0.00809817      -0.00026535       0.03575231
C        6.06639000       4.20282000      13.67500000       0.00102671       0.01545577       0.03593536
C        5.86416000       6.65450000      13.67500000       0.00008709      -0.00262881       0.03734724
C        5.66193000       9.10619000      13.67500000      -0.00291142      -0.00628971       0.03575453
C        5.45969000      11.55788000      13.67500000       0.02334510      -0.01705611       0.04101569
C        8.49282000       0.70043000      13.67500000       0.00444384      -0.00116425       0.03757004
C        8.29073000       3.15211000      13.67500000      -0.00150673       0.00131804       0.03732358
C        8.08850000       5.60380000      13.67500000      -0.00084233       0.00012879       0.03738894
C        7.88627000       8.05549000      13.67500000       0.01010078      -0.00774661       0.03594973
C        7.68403000      10.50717000      13.67500000      -0.02759244       0.00735792       0.04101424
C       10.51492000       2.10141000      13.67500000       0.00530241      -0.00871152       0.03556639
C       10.31269000       4.55309000      13.67500000      -0.00910748      -0.00636289       0.03593648
C       10.11061000       7.00478000      13.67500000      -0.00275973       0.00194762       0.03733951
C       12.73926000       1.05070000      13.67500000      -0.19713014      -0.01601400       0.00784712
C       12.53703000       3.50239000      13.67500000       0.01983794       0.02046276       0.04100750
C       -5.86409000      10.62393000      13.67500000       0.02620947       0.01174070       0.03736758
C       -3.43751000       7.12154000      13.67500000      -0.00126662      -0.00117589       0.03267101
C       -3.63975000       9.57323000      13.67500000       0.00354374      -0.00512195       0.03088967
C       -3.84198000      12.02491000      13.67500000      -0.02010121      -0.02017005       0.03736070
C       -1.01109000       3.61915000      13.67500000      -0.11278925       0.16294648       0.00536860
C       -1.21332000       6.07084000      13.67500000      -0.00433653      -0.00903940       0.03094928
C       -1.41556000       8.52252000      13.67500000       0.00680460      -0.00067718       0.03237609
C       -1.61764000      10.97421000      13.67500000       0.00874358       0.00632668       0.03127465
C        1.41548000       0.11676000      13.67500000       0.17061885      -0.24598751       0.21238503
C        1.21325000       2.56845000      13.67500000       0.12787174       0.27022813       0.21238137
C        1.01102000       5.02013000      13.67500000       0.02740856      -0.00697518       0.03736575
C        0.80878000       7.47182000      13.67500000      -0.01037626       0.00708970       0.03126941
C        0.60655000       9.92350000      13.67500000       0.00090263      -0.00296410       0.03244016
C        0.40439000      12.37506000      13.67500000      -0.00014319       0.00017049       0.03237899
C        3.43759000       1.51774000      13.67500000       0.19759011       0.01641153       0.00537014
C        3.23535000       3.96943000      13.67500000      -0.02310714       0.01672085       0.03736319
C        3.03312000       6.42111000      13.67500000       0.00317755       0.00321234       0.03089325
C        2.83096000       8.87267000      13.67500000      -0.00179264       0.00445684       0.03239179
C        2.62873000      11.32436000      13.67500000      -0.00106471      -0.01303707       0.03127345
C        5.66193000       0.46704000      13.67500000      -0.00489540       0.00861331       0.03094216
C        5.45969000       2.91872000      13.67500000      -0.00302208      -0.01181642       0.03094348
C        5.25754000       5.37028000      13.67500000       0.00979703      -0.00173141       0.03128284
C        5.05530000       7.82197000      13.67500000       0.00147791       0.00219385       0.03267729
C        4.85307000      10.27365000      13.67500000       0.00994080       0.00034937       0.03095438
C        4.65084000      12.72534000      13.67500000      -0.00793642       0.02756573       0.03736807
C        7.68411000       1.86789000      13.67500000      -0.00782092       0.00154446       0.03267834
C        7.48187000       4.31958000      13.67500000      -0.00059769       0.00134255       0.03240772
C        7.27964000       6.77126000      13.67500000       0.00161128       0.00012380       0.03241573
C        7.07741000       9.22295000      13.67500000      -0.00612333       0.00737167       0.03095456
C        6.87518000      11.67464000      13.67500000      -0.08503538      -0.17952601       0.00537176
C        9.90830000       0.81719000      13.67500000      -0.00597340      -0.00092245       0.03088993
C        9.70606000       3.26887000      13.67500000       0.00116557       0.01270812       0.03127028
C        9.50398000       5.72056000      13.67500000      -0.00248211       0.00027101       0.03241608
C        9.30175000       8.17224000      13.67500000      -0.00897952      -0.00893772       0.03126736
C       11.93040000       2.21817000      13.67500000      -0.00292907      -0.02874985       0.03735965
C       11.72817000       4.66985000      13.67500000       0.00966949       0.00124485       0.03094245
C       14.15474000       1.16746000      13.67500000      -0.29805240      -0.02424878       0.21238494
C        0.00000000       0.00000000      10.32500000      -0.13535708      -0.28690989      -0.18880919
C       -5.05523000       9.45647000      10.32500000      -0.01378288      -0.01256762      -0.03655211
C       -5.25746000      11.90815000      10.32500000       0.04041306      -0.05810862      -0.06129653
C       -2.62881000       5.95408000      10.32500000       0.01226732      -0.01794481      -0.03711700
C       -2.83089000       8.40576000      10.32500000      -0.00019561       0.00000048      -0.03733863
C       -3.03312000      10.85745000      10.32500000       0.01588830       0.00908190      -0.03655246
C       -0.20223000       2.45169000      10.32500000      -0.18069425       0.26042037      -0.18880448
C       -0.40447000       4.90337000      10.32500000      -0.00783561      -0.01815705      -0.03275050
C       -0.60670000       7.35506000      10.32500000       0.00085832      -0.00033311      -0.03641695
C       -0.80893000       9.80675000      10.32500000       0.00376807       0.00075640      -0.03724354
C       -1.01102000      12.25843000      10.32500000      -0.00186301       0.00148793      -0.03641329
C        2.02211000       1.40098000      10.32500000       0.31562918       0.02606159      -0.18879904
C        1.81987000       3.85267000      10.32500000       0.03059864       0.06418570      -0.06129527
C        1.61764000       6.30435000      10.32500000      -0.01589592       0.01003048      -0.03655999
C        1.41541000       8.75604000      10.32500000      -0.00042460      -0.00355647      -0.03725079
C        1.21325000      11.20760000      10.32500000      -0.00070183       0.00056295      -0.03726450
C        4.24645000       0.35028000      10.32500000      -0.01232202       0.01615086      -0.03274411
C        4.04421000       2.80196000      10.32500000      -0.00926484      -0.01753919      -0.03275096
C        3.84198000       5.25365000      10.32500000       0.01787693      -0.00898347      -0.03654938
C        3.63982000       7.70521000      10.32500000      -0.00180624       0.00408574      -0.03736145
C        3.43759000      10.15689000      10.32500000       0.00048583       0.00008918      -0.03642680
C        3.23535000      12.60858000      10.32500000      -0.00043993      -0.01853628      -0.03655296
C        6.26855000       1.75126000      10.32500000      -0.02082612      -0.00444763      -0.03710821
C        6.06639000       4.20282000      10.32500000      -0.00188243       0.00122931      -0.03642941
C        5.86416000       6.65450000      10.32500000       0.00112220      -0.00131995      -0.03731868
C        5.66193000       9.10619000      10.32500000       0.00894123       0.01898452      -0.03712366
C        5.45969000      11.55788000      10.32500000       0.02019759       0.00208506      -0.03275175
C        8.49282000       0.70043000      10.32500000      -0.00101061      -0.00039940      -0.03734099
C        8.29073000       3.15211000      10.32500000      -0.00155135       0.00268654      -0.03730225
C        8.08850000       5.60380000      10.32500000      -0.00012312       0.00044532      -0.03741767
C        7.88627000       8.05549000      10.32500000      -0.00051777      -0.00026337      -0.03642725
C        7.68403000      10.50717000      10.32500000      -0.01095536       0.01704699      -0.03275264
C       10.51492000       2.10141000      10.32500000      -0.00264041       0.01790860      -0.03655172
C       10.31269000       4.55309000      10.32500000       0.00429769       0.00055903      -0.03640856
C       10.11061000       7.00478000      10.32500000      -0.00410379       0.00146241      -0.03730366
C       12.73926000       1.05070000      10.32500000      -0.07052027      -0.00547198      -0.06129695
C       12.53703000       3.50239000      10.32500000       0.02001327       0.00079861      -0.03274461
C       -6.67294000      11.79139000      10.32500000       0.06903198      -0.14023488      -0.04861363
C       -4.24637000       8.28900000      10.32500000      -0.00357318       0.00237391      -0.03238427
C       -4.44860000      10.74069000      10.32500000      -0.00760788       0.01106335      -0.02228013
C       -1.81995000       4.78661000      10.32500000      -0.01427539       0.02102775      -0.02915242
C       -2.02218000       7.23830000      10.32500000       0.00540409       0.00452332      -0.03194472
C       -2.22426000       9.68999000      10.32500000      -0.00405451       0.00205556      -0.03238595
C       -2.42650000      12.14167000      10.32500000       0.00629250      -0.02261566      -0.02875886
C        0.60662000       1.28422000      10.32500000       0.00032062       0.00017024      -3.83154734
C        0.40439000       3.73591000      10.32500000       0.04534162       0.14990592      -0.04861488
C        0.20216000       6.18760000      10.32500000       0.01619939       0.01694417      -0.02876366
C       -0.00007000       8.63928000      10.32500000       0.00049045      -0.00044104      -0.03226859
C       -0.20231000      11.09097000      10.32500000       0.00440756      -0.00186008      -0.03228145
C        2.83096000       0.23352000      10.32500000       0.10733979      -0.11430621      -0.04861480
C        2.62873000       2.68520000      10.32500000       0.08671835       0.13038101      -0.04861412
C        2.42650000       5.13689000      10.32500000      -0.00588764      -0.01207620      -0.02228658
C        2.22426000       7.58858000      10.32500000      -0.00003990      -0.00282368      -0.03239869
C        2.02211000      10.04013000      10.32500000      -0.00020737       0.00393129      -0.03226882
C        1.81987000      12.49182000      10.32500000       0.00194016      -0.00206088      -0.03238121
C        4.85307000       1.63450000      10.32500000       0.02481002       0.00231660      -0.02915961
C        4.65084000       4.08619000      10.32500000       0.00471279       0.02186427      -0.02877205
C        4.44868000       6.53774000      10.32500000      -0.00011426      -0.00049337      -0.03239011
C        4.24645000       8.98943000      10.32500000      -0.00718944       0.00003097      -0.03194557
C        4.04421000      11.44112000      10.32500000      -0.02333640       0.00517402      -0.02876688
C        7.07741000       0.58380000      10.32500000       0.00116033      -0.00794811      -0.03193982
C        6.87525000       3.03535000      10.32500000       0.00165817       0.01044577      -0.03189984
C        6.67302000       5.48704000      10.32500000      -0.00026160       0.00037371      -0.03227369
C        6.47078000       7.93873000      10.32500000       0.00495274      -0.00614203      -0.03191616
C        6.26855000      10.39041000      10.32500000      -0.01074165      -0.02224473      -0.02916166
C        6.06632000      12.84210000      10.32500000      -0.15241090      -0.03584869      -0.04861647
C        9.09944000       1.98465000      10.32500000       0.00587112       0.00113744      -0.03239349
C        8.89736000       4.43634000      10.32500000      -0.00448446      -0.00137940      -0.03227076
C        8.69512000       6.88802000      10.32500000       0.00007129       0.00075660      -0.03227652
C        8.49289000       9.33971000      10.32500000       0.01900820      -0.01443049      -0.02876608
C       11.32378000       0.93394000      10.32500000       0.01335538       0.00135249      -0.02228007
C       11.12155000       3.38563000      10.32500000      -0.02173379      -0.00971650      -0.02875801
C       10.91931000       5.83732000      10.32500000      -0.00451721      -0.00270742      -0.03191140
C       13.34589000       2.33493000      10.32500000      -0.15630006       0.00991861      -0.04861488
Li       0.60662000       1.28422000      12.00000000       0.00000873       0.00000889       3.37361005
149
Lattice="14.963600159 0.0 0.0 -7.481800079 12.958857869 0.0 0.0 0.0 24.0" Properties=species:S:1:pos:R:3:forces:R:3 energy=-1376.4183749551712 stress="-0.0657240034359924 3.876765650469565e-07 8.118759269099177e-09 3.876765650469565e-07 -0.06572471196527914 7.844892932601609e-09 8.118759269099177e-09 7.844892932601609e-09 -0.002948236224916302" free_energy=-1376.4183749551712 pbc="T T T"
C        0.00000000       0.00000000      13.68228850      -0.16263142      -0.34428002       0.28201479
C       -5.05523000       9.45647000      13.67614934       0.00516747       0.00851255       0.03290714
C       -5.25746000      11.90815000      13.67525361       0.11408445      -0.16484273       0.03573199
C       -2.62881000       5.95408000      13.67615496      -0.00163623       0.00346078       0.03282924
C       -2.83089000       8.40576000      13.67621377      -0.00598958       0.00287426       0.03446510
C       -3.03312000      10.85745000      13.67614929      -0.01046942      -0.00179035       0.03289911
C       -0.20223000       2.45169000      13.68228838      -0.21701037       0.31269023       0.28201104
C       -0.40447000       4.90337000      13.67632526      -0.02580347      -0.02041007       0.03325176
C       -0.60670000       7.35506000      13.67616146       0.00974100       0.00829542       0.03379090
C       -0.80893000       9.80675000      13.67620827       0.00313247       0.00026713       0.03439920
C       -1.01102000      12.25843000      13.67616134       0.00126741      -0.01339038       0.03378952
C        2.02211000       1.40098000      13.68228819       0.37929666       0.03143017       0.28200521
C        1.81987000       3.85267000      13.67525358       0.08573820       0.18140104       0.03572943
C        1.61764000       6.30435000      13.67614959       0.00634139      -0.00713769       0.03290409
C        1.41541000       8.75604000      13.67620874       0.00033613      -0.00153242       0.03440868
C        1.21325000      11.20760000      13.67620824       0.00068859       0.00104223       0.03439902
C        4.24645000       0.35028000      13.67632511      -0.00496757       0.03270371       0.03324715
C        4.04421000       2.80196000      13.67632539       0.00041980      -0.03287780       0.03325149
C        3.84198000       5.25365000      13.67614977      -0.00784384      -0.00145636       0.03291728
C        3.63982000       7.70521000      13.67621412      -0.00189327      -0.00020576       0.03447464
C        3.43759000      10.15689000      13.67616173      -0.01220141       0.00396932       0.03380010
C        3.23535000      12.60858000      13.67614933       0.00348217       0.00930340       0.03290010
C        6.26855000       1.75126000      13.67615529       0.00800056      -0.00026742       0.03283494
C        6.06639000       4.20282000      13.67616120       0.00053687       0.01561208       0.03377198
C        5.86416000       6.65450000      13.67620683      -0.00001294      -0.00298128       0.03447427
C        5.66193000       9.10619000      13.67615536      -0.00286435      -0.00620452       0.03283953
C        5.45969000      11.55788000      13.67632537       0.03130318      -0.01258557       0.03325469
C        8.49282000       0.70043000      13.67621403       0.00500851      -0.00114403       0.03447138
C        8.29073000       3.15211000      13.67620606      -0.00115080       0.00140758       0.03445831
C        8.08850000       5.60380000      13.67620817      -0.00084196       0.00012883       0.03474541
C        7.88627000       8.05549000      13.67616167       0.01048091      -0.00740089       0.03378047
C        7.68403000      10.50717000      13.67632532      -0.02919319       0.01634367       0.03325254
C       10.51492000       2.10141000      13.67614928       0.00537848      -0.00894316       0.03290605
C       10.31269000       4.55309000      13.67616124      -0.00899840      -0.00686452       0.03377199
C       10.11061000       7.00478000      13.67620658      -0.00301493       0.00221022       0.03446657
C       12.73926000       1.05070000      13.67525357      -0.20000957      -0.01624973       0.03572945
C       12.53703000       3.50239000      13.67632510       0.02842005       0.01735638       0.03324524
C       -5.86409000      10.62393000      13.67620748       0.02678671       0.02173156       0.03309895
C       -3.43751000       7.12154000      13.67605572      -0.00097799      -0.00164299       0.03441810
C       -3.63975000       9.57323000      13.67599816       0.00344924      -0.00497598       0.03264888
C       -3.84198000      12.02491000      13.67620726      -0.02965785      -0.01720009       0.03309141
C       -1.01109000       3.61915000      13.67517348      -0.11451913       0.16544310       0.03824158
C       -1.21332000       6.07084000      13.67600008      -0.00440699      -0.00920911       0.03242237
C       -1.41556000       8.52252000      13.67604619       0.00705640      -0.00091484       0.03435187
C       -1.61764000      10.97421000      13.67601060       0.00864752       0.00680463       0.03378529
C        1.41548000       0.11676000      13.68186294       0.21273201      -0.30677475       0.28438352
C        1.21325000       2.56845000      13.68186282       0.15945493       0.33709244       0.28437761
C        1.01102000       5.02013000      13.67620742       0.02961400      -0.01673601       0.03309718
C        0.80878000       7.47182000      13.67601043      -0.01074221       0.00676705       0.03378778
C        0.60655000       9.92350000      13.67604826       0.00090248      -0.00296372       0.03469653
C        0.40439000      12.37506000      13.67604628      -0.00047553       0.00007093       0.03435434
C        3.43759000       1.51774000      13.67517353       0.20061700       0.01666114       0.03824241
C        3.23535000       3.96943000      13.67620734      -0.03204813       0.01222491       0.03309840
C        3.03312000       6.42111000      13.67599827       0.00309855       0.00305790       0.03265648
C        2.83096000       8.87267000      13.67604670      -0.00171265       0.00479418       0.03436746
C        2.62873000      11.32436000      13.67601056      -0.00060249      -0.01319278       0.03378747
C        5.66193000       0.46704000      13.67599985      -0.00500704       0.00875850       0.03241904
C        5.45969000       2.91872000      13.67599990      -0.00309689      -0.01197744       0.03241471
C        5.25754000       5.37028000      13.67601086       0.00977762      -0.00222326       0.03380646
C        5.05530000       7.82197000      13.67605592       0.00173800       0.00267664       0.03442716
C        4.85307000      10.27365000      13.67600025       0.01012270       0.00037353       0.03242892
C        4.65084000      12.72534000      13.67620750      -0.00058604       0.03435702       0.03309749
C        7.68411000       1.86789000      13.67605596      -0.00836842       0.00152839       0.03442309
C        7.48187000       4.31958000      13.67604721      -0.00081598       0.00141293       0.03428269
C        7.27964000       6.77126000      13.67604747       0.00178167       0.00027769       0.03429459
C        7.07741000       9.22295000      13.67600025      -0.00622536       0.00751737       0.03242391
C        6.87518000      11.67464000      13.67517358      -0.08633300      -0.18227127       0.03824545
C        9.90830000       0.81719000      13.67599817      -0.00579984      -0.00091349       0.03264991
C        9.70606000       3.26887000      13.67601046       0.00160067       0.01293723       0.03379168
C        9.50398000       5.72056000      13.67604748      -0.00243373       0.00004588       0.03429106
C        9.30175000       8.17224000      13.67601036      -0.00939596      -0.00867475       0.03379588
C       11.93040000       2.21817000      13.67620723       0.00543562      -0.03424633       0.03309247
C       11.72817000       4.66985000      13.67599986       0.00984617       0.00126063       0.03241164
C       14.15474000       1.16746000      13.68186293      -0.37175181      -0.03033077       0.28438670
C        0.00000000       0.00000000      10.31889889      -0.10072538      -0.21358692      -0.74666196
C       -5.05523000       9.45647000      10.32381887      -0.00921293      -0.01485696      -0.02841011
C       -5.25746000      11.90815000      10.32301929       0.03609870      -0.05188226      -0.09598386
C       -2.62881000       5.95408000      10.32380061       0.00951402      -0.01398737      -0.03335615
C       -2.83089000       8.40576000      10.32379345      -0.00044717       0.00030110      -0.03471154
C       -3.03312000      10.85745000      10.32381886       0.01642915       0.00399408      -0.02840386
C       -0.20223000       2.45169000      10.31889904      -0.13452245       0.19378546      -0.74667247
C       -0.40447000       4.90337000      10.32394171      -0.01376902      -0.01270651       0.01923915
C       -0.60670000       7.35506000      10.32382324      -0.00069422       0.00010596      -0.03213295
C       -0.80893000       9.80675000      10.32379653       0.00384438       0.00045067      -0.03474383
C       -1.01102000      12.25843000      10.32382335      -0.00070651       0.00261235      -0.03213171
C        2.02211000       1.40098000      10.31889921       0.23486200       0.01939871      -0.74668971
C        1.81987000       3.85267000      10.32301933       0.02736387       0.05733590      -0.09598269
C        1.61764000       6.30435000      10.32381861      -0.01176009       0.01304324      -0.02841167
C        1.41541000       8.75604000      10.32379629      -0.00019807      -0.00333723      -0.03474732
C        1.21325000      11.20760000      10.32379585      -0.00100469       0.00064961      -0.03475444
C        4.24645000       0.35028000      10.32394192      -0.00463505       0.01856314       0.01924244
C        4.04421000       2.80196000      10.32394170      -0.00128759      -0.01866088       0.01923684
C        3.84198000       5.25365000      10.32381896       0.01757448      -0.00388178      -0.02841183
C        3.63982000       7.70521000      10.32379272      -0.00194085       0.00371735      -0.03472701
C        3.43759000      10.15689000      10.32382292       0.00088143      -0.00147484      -0.03213856
C        3.23535000      12.60858000      10.32381884      -0.00511701      -0.01646070      -0.02840384
C        6.26855000       1.75126000      10.32380090      -0.01602213      -0.00404106      -0.03334962
C        6.06639000       4.20282000      10.32382283      -0.00059603       0.00029253      -0.03212669
C        5.86416000       6.65450000      10.32379410       0.00111730      -0.00104399      -0.03478088
C        5.66193000       9.10619000      10.32380040       0.00689077       0.01462128      -0.03336150
C        5.45969000      11.55788000      10.32394167       0.01844259      -0.00577864       0.01923626
C        8.49282000       0.70043000      10.32379338      -0.00062422      -0.00033174      -0.03471291
C        8.29073000       3.15211000      10.32379463      -0.00178802       0.00254420      -0.03476944
C        8.08850000       5.60380000      10.32379090      -0.00012323       0.00044505      -0.03479553
C        7.88627000       8.05549000      10.32382290      -0.00197187      -0.00090855      -0.03212792
C        7.68403000      10.50717000      10.32394164      -0.01591435       0.01069768       0.01923629
C       10.51492000       2.10141000      10.32381888      -0.00690782       0.01509572      -0.02841074
C       10.31269000       4.55309000      10.32382351       0.00446541       0.00214093      -0.03211488
C       10.11061000       7.00478000      10.32379458      -0.00386269       0.00132873      -0.03477201
C       12.73926000       1.05070000      10.32301927      -0.06297149      -0.00484870      -0.09598596
C       12.53703000       3.50239000      10.32394190       0.01699411       0.00826733       0.01924411
C       -6.67294000      11.79139000      10.32342912       0.06068268      -0.14046651      -0.01538918
C       -4.24637000       8.28900000      10.32395355      -0.00347030       0.00301926      -0.03454472
C       -4.44860000      10.74069000      10.32428005      -0.00292583       0.00430491      -0.03578011
C       -1.81995000       4.78661000      10.32405798      -0.01433957       0.02111991      -0.03955204
C       -2.02218000       7.23830000      10.32396775       0.00562959       0.00374594      -0.03431025
C       -2.22426000       9.68999000      10.32395349      -0.00473436       0.00222833      -0.03449942
C       -2.42650000      12.14167000      10.32407070       0.00332400      -0.01913928      -0.03241448
C        0.60662000       1.28422000      10.20118872       0.00029887       0.00015645       0.18221671
C        0.40439000       3.73591000      10.32342908       0.03706295       0.14875861      -0.01538965
C        0.20216000       6.18760000      10.32407054       0.01467347       0.01263599      -0.03242078
C       -0.00007000       8.63928000      10.32395728       0.00010675      -0.00089995      -0.03443524
C       -0.20231000      11.09097000      10.32395687       0.00420134      -0.00129825      -0.03444520
C        2.83096000       0.23352000      10.32342908       0.11048481      -0.10656062      -0.01538553
C        2.62873000       2.68520000      10.32342910       0.09108899       0.12325720      -0.01538672
C        2.42650000       5.13689000      10.32427984      -0.00237587      -0.00464218      -0.03578434
C        2.22426000       7.58858000      10.32395308       0.00015040      -0.00349977      -0.03451425
C        2.02211000      10.04013000      10.32395728       0.00038192       0.00382806      -0.03444096
C        1.81987000      12.49182000      10.32395365       0.00243004      -0.00155743      -0.03450179