157
Lattice="15.362700462 0.0 0.0 -7.681350231 13.304488871 0.0 0.0 0.0 24.0" Properties=species:S:1:pos:R:3:forces:R:3 energy=-1451.3433686879314 stress="-0.0676074089193253 1.660335571674591e-07 -4.630952738999271e-19 1.660335571674591e-07 -0.06760763355979452 1.0532693475504912e-18 -4.630952738999271e-19 1.0532693475504912e-18 -5.9703726272435307e-05" free_energy=-1451.3433686879314 pbc="T T T"
C        0.00000000       0.00000000      13.87500000      -0.05128133      -0.17689277      -0.02513433
C       -4.13610000       7.84619000      13.87500000       0.00013725       0.00296706       0.00038504
C       -4.72703000      10.23421000      13.87500000      -0.00248608      -0.00977329      -0.00132436
C       -5.31780000      12.62223000      13.87500000       0.01803383       0.00914100       0.00519533
C       -0.59093000       2.38802000      13.87500000      -0.19709489      -0.05280135       0.03522383
C       -1.18178000       4.77591000      13.87500000      -0.12389555       0.13568734      -0.02513696
C       -1.77255000       7.16394000      13.87500000      -0.01043108      -0.00207207      -0.00217844
C       -2.36347000       9.55196000      13.87500000      -0.00326882      -0.00079043       0.00006496
C       -2.95440000      11.93998000      13.87500000       0.00961089      -0.00982668      -0.00121796
C        1.77263000       1.70577000      13.87500000       0.14193294      -0.15408136       0.03523258
C        1.18178000       4.09366000      13.87500000       0.05654962       0.20312585       0.03523584
C        0.59085000       6.48168000      13.87500000       0.02400465      -0.00181085       0.00520540
C       -0.00008000       8.86970000      13.87500000      -0.00500739       0.00373852      -0.00132201
C       -0.59077000      11.25759000      13.87500000      -0.00433245       0.00079639       0.00014080
C        4.13610000       1.02338000      13.87500000      -0.01075079      -0.01507552       0.00520104
C        3.54517000       3.41140000      13.87500000       0.18415667       0.04333389      -0.02511435
C        2.95440000       5.79943000      13.87500000      -0.02276352       0.00706053       0.00518856
C        2.36355000       8.18732000      13.87500000      -0.00307796       0.01058293      -0.00121819
C        1.77263000      10.57534000      13.87500000       0.00253601       0.00314088       0.00014083
C        1.18170000      12.96336000      13.87500000       0.00061282       0.00158574       0.00014618
C        6.49965000       0.34113000      13.87500000       0.00621736       0.00670222      -0.00132506
C        5.90873000       2.72915000      13.87500000      -0.00136558       0.00905118      -0.00216593
C        5.31780000       5.11717000      13.87500000       0.00888145      -0.01105405      -0.00217203
C        4.72695000       7.50506000      13.87500000       0.01450520       0.00410545      -0.00132837
C        4.13618000       9.89308000      13.87500000      -0.00454584       0.00190036       0.00006326
C        3.54525000      12.28111000      13.87500000      -0.00269374      -0.01619291      -0.00132449
C        8.27212000       2.04690000      13.87500000       0.00483366      -0.00608770       0.00006021
C        7.68143000       4.43479000      13.87500000      -0.00492078       0.00256774       0.00038274
C        7.09050000       6.82281000      13.87500000      -0.00540506       0.00032762       0.00015028
C        6.49957000       9.21083000      13.87500000       0.00303032      -0.00352464       0.00038456
C        5.90873000      11.59872000      13.87500000       0.00817730      -0.00025335      -0.00217452
C       10.63575000       1.36451000      13.87500000      -0.00936071       0.00222976      -0.00121897
C       10.04482000       3.75253000      13.87500000      -0.00406542       0.01210003      -0.00132096
C        9.45390000       6.14055000      13.87500000       0.00188419      -0.00069306       0.00015135
C        8.86313000       8.52858000      13.87500000       0.00113370      -0.00405286       0.00015021
C        8.27228000      10.91647000      13.87500000      -0.01229629       0.00277794      -0.00218057
C       12.99915000       0.68225000      13.87500000      -0.00532857       0.02272393       0.00517920
C       12.40838000       3.07028000      13.87500000      -0.00451656      -0.02436345       0.00519618
C       11.81745000       5.45830000      13.87500000       0.00185997       0.00378678      -0.00217938
C       -6.69660000      12.28111000      13.87500000      -0.01876183      -0.00230233       0.00519184
C       12.80228000       4.43479000      13.87500000       0.01038701       0.02264562       0.00520022
C       -3.15135000       6.82281000      13.87500000      -0.00042986       0.00547928      -0.00121309
C       -3.74228000       9.21083000      13.87500000       0.00113756      -0.00141184       0.00005594
C       -4.33297000      11.59872000      13.87500000       0.00139232       0.00660431      -0.00218048
C        0.39390000       1.36451000      13.87500000      -0.05658781      -0.19452989       0.03519496
C       -0.19687000       3.75253000      13.87500000      -0.14772810       0.15013930       0.03526932
C       -0.78780000       6.14055000      13.87500000      -0.02318848      -0.01525891       0.00518871
C       -1.37873000       8.52858000      13.87500000       0.00586147       0.00696226      -0.00131996
C       -1.96958000      10.91647000      13.87500000       0.00322148       0.00345723       0.00038442
C        5.12085000       0.00000000      13.87500000       0.00024095      -0.00635608      -0.00217815
C        2.75745000       0.68225000      13.87500000       0.12544778      -0.13008990      -0.02514214
C        2.16652000       3.07028000      13.87500000       0.20222954       0.04922997       0.03530582
C        1.57560000       5.45830000      13.87500000       0.05653096       0.17486622      -0.02513958
C        0.98475000       7.84619000      13.87500000       0.00912648       0.00435874      -0.00218157
C        0.39398000      10.23421000      13.87500000      -0.00340182      -0.00169509       0.00015201
C       -0.19695000      12.62223000      13.87500000      -0.00189094      -0.00004980       0.00015062
C        4.53008000       2.38802000      13.87500000      -0.00552067       0.02101399       0.00517468
C        3.93923000       4.77591000      13.87500000       0.00394894      -0.01804171       0.00519318
C        3.34830000       7.16394000      13.87500000      -0.00684280       0.00449652      -0.00216850
C        2.75737000       9.55196000      13.87500000       0.00413938      -0.00232342       0.00038246
C        2.16645000      11.93998000      13.87500000       0.00644254      -0.00328490       0.00015006
C        6.89347000       1.70577000      13.87500000       0.00810169      -0.01419220      -0.00132264
C        6.30262000       4.09366000      13.87500000       0.01108580       0.00591089      -0.00122472
C        5.71170000       6.48168000      13.87500000       0.00358372       0.01297872      -0.00132442
C        5.12093000       8.86970000      13.87500000      -0.00169697      -0.00647538       0.00005920
C        4.53008000      11.25759000      13.87500000      -0.01543177       0.00375963      -0.00131858
C        9.25710000       1.02338000      13.87500000      -0.00683679       0.00422311       0.00038221
C        8.66618000       3.41140000      13.87500000      -0.00047195       0.00078521       0.00006592
C        8.07525000       5.79943000      13.87500000       0.00031449      -0.00382720       0.00013954
C        7.48440000       8.18732000      13.87500000      -0.00047239       0.00291281       0.00014299
C        6.89347000      10.57534000      13.87500000       0.00268442      -0.00693351      -0.00121738
C        6.30270000      12.96336000      13.87500000       0.01577989      -0.01274657       0.00518929
C       11.62050000       0.34113000      13.87500000      -0.00274597       0.00615476      -0.00216743
C       11.02957000       2.72915000      13.87500000       0.00391364      -0.00951843      -0.00218275
C       10.43865000       5.11717000      13.87500000      -0.00599801      -0.00791897      -0.00132100
C        9.84795000       7.50506000      13.87500000      -0.00412578       0.00445833       0.00013916
C        9.25703000       9.89308000      13.87500000       0.00821119      -0.00541751      -0.00131975
C       13.39313000       2.04690000      13.87500000      -0.18078186      -0.04805370      -0.02513262
C        0.00000000       0.00000000      10.12500000      -0.05128133      -0.17689277       0.02513433
C       -4.13610000       7.84619000      10.12500000       0.00013725       0.00296706      -0.00038504
C       -4.72703000      10.23421000      10.12500000      -0.00248608      -0.00977329       0.00132436
C       -5.31780000      12.62223000      10.12500000       0.01803383       0.00914100      -0.00519533
C       -0.59093000       2.38802000      10.12500000      -0.19709489      -0.05280135      -0.03522383
C       -1.18178000       4.77591000      10.12500000      -0.12389555       0.13568734       0.02513696
C       -1.77255000       7.16394000      10.12500000      -0.01043108      -0.00207207       0.00217844
C       -2.36347000       9.55196000      10.12500000      -0.00326882      -0.00079043      -0.00006496
C       -2.95440000      11.93998000      10.12500000       0.00961089      -0.00982668       0.00121796
C        1.77263000       1.70577000      10.12500000       0.14193294      -0.15408136      -0.03523258
C        1.18178000       4.09366000      10.12500000       0.05654962       0.20312585      -0.03523584
C        0.59085000       6.48168000      10.12500000       0.02400465      -0.00181085      -0.00520540
C       -0.00008000       8.86970000      10.12500000      -0.00500739       0.00373852       0.00132201
C       -0.59077000      11.25759000      10.12500000      -0.00433245       0.00079639      -0.00014080
C        4.13610000       1.02338000      10.12500000      -0.01075079      -0.01507552      -0.00520104
C        3.54517000       3.41140000      10.12500000       0.18415667       0.04333389       0.02511435
C        2.95440000       5.79943000      10.12500000      -0.02276352       0.00706053      -0.00518856
C        2.36355000       8.18732000      10.12500000      -0.00307796       0.01058293       0.00121819
C        1.77263000      10.57534000      10.12500000       0.00253601       0.00314088      -0.00014083
C        1.18170000      12.96336000      10.12500000       0.00061282       0.00158574      -0.00014618
C        6.49965000       0.34113000      10.12500000       0.00621736       0.00670222       0.00132506
C        5.90873000       2.72915000      10.12500000      -0.00136558       0.00905118       0.00216593
C        5.31780000       5.11717000      10.12500000       0.00888145      -0.01105405       0.00217203
C        4.72695000       7.50506000      10.12500000       0.01450520       0.00410545       0.00132837
C        4.13618000       9.89308000      10.12500000      -0.00454584       0.00190036      -0.00006326
C        3.54525000      12.28111000      10.12500000      -0.00269374      -0.01619291       0.00132449
C        8.27212000       2.04690000      10.12500000       0.00483366      -0.00608770      -0.00006021
C        7.68143000       4.43479000      10.12500000      -0.00492078       0.00256774      -0.00038274
C        7.09050000       6.82281000      10.12500000      -0.00540506       0.00032762      -0.00015028
C        6.49957000       9.21083000      10.12500000       0.00303032      -0.00352464      -0.00038456
C        5.90873000      11.59872000      10.12500000       0.00817730      -0.00025335       0.00217452
C       10.63575000       1.36451000      10.12500000      -0.00936071       0.00222976       0.00121897
C       10.04482000       3.75253000      10.12500000      -0.00406542       0.01210003       0.00132096
C        9.45390000       6.14055000      10.12500000       0.00188419      -0.00069306      -0.00015135
C        8.86313000       8.52858000      10.12500000       0.00113370      -0.00405286      -0.00015021
C        8.27228000      10.91647000      10.12500000      -0.01229629       0.00277794       0.00218057
C       12.99915000       0.68225000      10.12500000      -0.00532857       0.02272393      -0.00517920
C       12.40838000       3.07028000      10.12500000      -0.00451656      -0.02436345      -0.00519618
C       11.81745000       5.45830000      10.12500000       0.00185997       0.00378678       0.00217938
C       -6.69660000      12.28111000      10.12500000      -0.01876183      -0.00230233      -0.00519184
C       12.80228000       4.43479000      10.12500000       0.01038701       0.02264562      -0.00520022
C       -3.15135000       6.82281000      10.12500000      -0.00042986       0.00547928       0.00121309
C       -3.74228000       9.21083000      10.12500000       0.00113756      -0.00141184      -0.00005594
C       -4.33297000      11.59872000      10.12500000       0.00139232       0.00660431       0.00218048
C        0.39390000       1.36451000      10.12500000      -0.05658781      -0.19452989      -0.03519496
C       -0.19687000       3.75253000      10.12500000      -0.14772810       0.15013930      -0.03526932
C       -0.78780000       6.14055000      10.12500000      -0.02318848      -0.01525891      -0.00518871
C       -1.37873000       8.52858000      10.12500000       0.00586147       0.00696226       0.00131996
C       -1.96958000      10.91647000      10.12500000       0.00322148       0.00345723      -0.00038442
C        5.12085000       0.00000000      10.12500000       0.00024095      -0.00635608       0.00217815
C        2.75745000       0.68225000      10.12500000       0.12544778      -0.13008990       0.02514214
C        2.16652000       3.07028000      10.12500000       0.20222954       0.04922997      -0.03530582
C        1.57560000       5.45830000      10.12500000       0.05653096       0.17486622       0.02513958
C        0.98475000       7.84619000      10.12500000       0.00912648       0.00435874       0.00218157
C        0.39398000      10.23421000      10.12500000      -0.00340182      -0.00169509      -0.00015201
C       -0.19695000      12.62223000      10.12500000      -0.00189094      -0.00004980      -0.00015062
C        4.53008000       2.38802000      10.12500000      -0.00552067       0.02101399      -0.00517468
C        3.93923000       4.77591000      10.12500000       0.00394894      -0.01804171      -0.00519318
C        3.34830000       7.16394000      10.12500000      -0.00684280       0.00449652       0.00216850
C        2.75737000       9.55196000      10.12500000       0.00413938      -0.00232342      -0.00038246
C        2.16645000      11.93998000      10.12500000       0.00644254      -0.00328490      -0.00015006
C        6.89347000       1.70577000      10.12500000       0.00810169      -0.01419220       0.00132264
C        6.30262000       4.09366000      10.12500000       0.01108580       0.00591089       0.00122472
C        5.71170000       6.48168000      10.12500000       0.00358372       0.01297872       0.00132442
C        5.12093000       8.86970000      10.12500000      -0.00169697      -0.00647538      -0.00005920
C        4.53008000      11.25759000      10.12500000      -0.01543177       0.00375963       0.00131858
C        9.25710000       1.02338000      10.12500000      -0.00683679       0.00422311      -0.00038221
C        8.66618000       3.41140000      10.12500000      -0.00047195       0.00078521      -0.00006592
C        8.07525000       5.79943000      10.12500000       0.00031449      -0.00382720      -0.00013954
C        7.48440000       8.18732000      10.12500000      -0.00047239       0.00291281      -0.00014299
C        6.89347000      10.57534000      10.12500000       0.00268442      -0.00693351       0.00121738
C        6.30270000      12.96336000      10.12500000       0.01577989      -0.01274657      -0.00518929
C       11.62050000       0.34113000      10.12500000      -0.00274597       0.00615476       0.00216743
C       11.02957000       2.72915000      10.12500000       0.00391364      -0.00951843       0.00218275
C       10.43865000       5.11717000      10.12500000      -0.00599801      -0.00791897       0.00132100
C        9.84795000       7.50506000      10.12500000      -0.00412578       0.00445833      -0.00013916
C        9.25703000       9.89308000      10.12500000       0.00821119      -0.00541751       0.00131975
C       13.39313000       2.04690000      10.12500000      -0.18078186      -0.04805370       0.02513262
Li       0.78788000       2.72915000      12.00000000      -0.00015367      -0.00019269       0.00000000
157
Lattice="15.362700462 0.0 0.0 -7.681350231 13.304488871 0.0 0.0 0.0 24.0" Properties=species:S:1:pos:R:3:forces:R:3 energy=-1451.3443830779927 stress="-0.0676126712324029 1.6551598079335196e-07 4.587366505004635e-18 1.6551598079335196e-07 -0.06761289803262803 4.949213674506658e-18 4.587366505004635e-18 4.949213674506658e-18 -5.248454502900322e-05" free_energy=-1451.3443830779927 pbc="T T T"
C        0.00000000       0.00000000      13.87320469      -0.05143587      -0.17742710       0.00918769
C       -4.13610000       7.84619000      13.87502750       0.00016486       0.00294238      -0.00060646
C       -4.72703000      10.23421000      13.87490540      -0.00248125      -0.00979042      -0.00060905
C       -5.31780000      12.62223000      13.87537110       0.01800315       0.00875443      -0.00867488
C       -0.59093000       2.38802000      13.87751599      -0.19654592      -0.05266128       0.02123967
C       -1.18178000       4.77591000      13.87320450      -0.12427784       0.13608269       0.00923207
C       -1.77255000       7.16394000      13.87484440      -0.01046664      -0.00196915       0.00156790
C       -2.36347000       9.55196000      13.87500464      -0.00327047      -0.00080917      -0.00023201
C       -2.95440000      11.93998000      13.87491300       0.00963115      -0.00984709      -0.00288599
C        1.77263000       1.70577000      13.87751661       0.14154055      -0.15366550       0.02123282
C        1.18178000       4.09366000      13.87751685       0.05639077       0.20257005       0.02125665
C        0.59085000       6.48168000      13.87537181       0.02379638      -0.00148227      -0.00867524
C       -0.00008000       8.86970000      13.87490557      -0.00501002       0.00375716      -0.00061964
C       -0.59077000      11.25759000      13.87501006      -0.00433048       0.00080648       0.00049297
C        4.13610000       1.02338000      13.87537150      -0.01036402      -0.01505850      -0.00867745
C        3.54517000       3.41140000      13.87320612       0.18468697       0.04346488       0.00923294
C        2.95440000       5.79943000      13.87537061      -0.02241163       0.00722707      -0.00867118
C        2.36355000       8.18732000      13.87491299      -0.00306982       0.01061057      -0.00288379
C        1.77263000      10.57534000      13.87501006       0.00252634       0.00313753       0.00049091
C        1.18170000      12.96336000      13.87501044       0.00062055       0.00157897       0.00049212
C        6.49965000       0.34113000      13.87490535       0.00623475       0.00669512      -0.00062059
C        5.90873000       2.72915000      13.87484529      -0.00125926       0.00903018       0.00155650
C        5.31780000       5.11717000      13.87484485       0.00896608      -0.01098576       0.00157588
C        4.72695000       7.50506000      13.87490512       0.01451702       0.00411832      -0.00060456
C        4.13618000       9.89308000      13.87500452      -0.00452888       0.00190831      -0.00023133
C        3.54525000      12.28111000      13.87490539      -0.00270857      -0.01620485      -0.00061357
C        8.27212000       2.04690000      13.87500430       0.00481831      -0.00607689      -0.00023157
C        7.68143000       4.43479000      13.87502734      -0.00495587       0.00255628      -0.00060760
C        7.09050000       6.82281000      13.87501073      -0.00542112       0.00031154      -0.00038072
C        6.49957000       9.21083000      13.87502747       0.00303797      -0.00348827      -0.00060545
C        5.90873000      11.59872000      13.87484468       0.00810641      -0.00033537       0.00157002
C       10.63575000       1.36451000      13.87491293      -0.00938877       0.00222292      -0.00288285
C       10.04482000       3.75253000      13.87490565      -0.00408267       0.01210417      -0.00060637
C        9.45390000       6.14055000      13.87501081       0.00190607      -0.00069898      -0.00037900
C        8.86313000       8.52858000      13.87501073       0.00112788      -0.00403090      -0.00037794
C        8.27228000      10.91647000      13.87484424      -0.01228005       0.00267031       0.00158454
C       12.99915000       0.68225000      13.87536994      -0.00550838       0.02238066      -0.00867588
C       12.40838000       3.07028000      13.87537116      -0.00483440      -0.02414320      -0.00866430
C       11.81745000       5.45830000      13.87484433       0.00175897       0.00382589       0.00158653
C       -6.69660000      12.28111000      13.87537085      -0.01855448      -0.00262827      -0.00866946
C       12.80228000       4.43479000      13.87537144       0.00999899       0.02262967      -0.00867128
C       -3.15135000       6.82281000      13.87491335      -0.00044977       0.00550026      -0.00288507
C       -3.74228000       9.21083000      13.87500400       0.00113918      -0.00139321      -0.00023157
C       -4.33297000      11.59872000      13.87484425       0.00142749       0.00650206       0.00156869
C        0.39390000       1.36451000      13.87751393      -0.05642947      -0.19398748       0.02122509
C       -0.19687000       3.75253000      13.87751924      -0.14732748       0.14972756       0.02122171
C       -0.78780000       6.14055000      13.87537062      -0.02315669      -0.01487170      -0.00867083
C       -1.37873000       8.52858000      13.87490572       0.00585629       0.00697909      -0.00060449
C       -1.96958000      10.91647000      13.87502746       0.00319392       0.00348201      -0.00060541
C        5.12085000       0.00000000      13.87484442       0.00034238      -0.00639586       0.00158536
C        2.75745000       0.68225000      13.87320413       0.12583046      -0.13048874       0.00921967
C        2.16652000       3.07028000      13.87752184       0.20166674       0.04909204       0.02124014
C        1.57560000       5.45830000      13.87320432       0.05668248       0.17539421       0.00922018
C        0.98475000       7.84619000      13.87484417       0.00910959       0.00446583       0.00158695
C        0.39398000      10.23421000      13.87501086      -0.00339597      -0.00171699      -0.00037889
C       -0.19695000      12.62223000      13.87501076      -0.00191288      -0.00004390      -0.00037886
C        4.53008000       2.38802000      13.87536962      -0.00519907       0.02079254      -0.00866142
C        3.93923000       4.77591000      13.87537094       0.00412962      -0.01769592      -0.00866627
C        3.34830000       7.16394000      13.87484511      -0.00677141       0.00457853       0.00156478
C        2.75737000       9.55196000      13.87502732       0.00413180      -0.00235954      -0.00060665
C        2.16645000      11.93998000      13.87501072       0.00645866      -0.00326891      -0.00037834
C        6.89347000       1.70577000      13.87490553       0.00811886      -0.01419618      -0.00060295
C        6.30262000       4.09366000      13.87491252       0.01111385       0.00591804      -0.00287738
C        5.71170000       6.48168000      13.87490540       0.00359859       0.01299006      -0.00062015
C        5.12093000       8.86970000      13.87500423      -0.00171402      -0.00648332      -0.00023393
C        4.53008000      11.25759000      13.87490582      -0.01544422       0.00374679      -0.00060522
C        9.25710000       1.02338000      13.87502730      -0.00680149       0.00423467      -0.00060551
C        8.66618000       3.41140000      13.87500471      -0.00045659       0.00077448      -0.00023131
C        8.07525000       5.79943000      13.87500997       0.00030672      -0.00382051       0.00049151
C        7.48440000       8.18732000      13.87501021      -0.00046265       0.00291613       0.00049164
C        6.89347000      10.57534000      13.87491304       0.00267655      -0.00696134      -0.00288327
C        6.30270000      12.96336000      13.87537066       0.01543098      -0.01291226      -0.00867242
C       11.62050000       0.34113000      13.87484518      -0.00283068       0.00608688       0.00157703
C       11.02957000       2.72915000      13.87484409       0.00380667      -0.00949806       0.00156854
C       10.43865000       5.11717000      13.87490564      -0.00601572      -0.00791206      -0.00061879
C        9.84795000       7.50506000      13.87500994      -0.00412773       0.00444827       0.00049191
C        9.25703000       9.89308000      13.87490573       0.00821403      -0.00543621      -0.00062062
C       13.39313000       2.04690000      13.87320481      -0.18131981      -0.04818695       0.00920376
C        0.00000000       0.00000000      10.12679531      -0.05143587      -0.17742710      -0.00918769
C       -4.13610000       7.84619000      10.12497250       0.00016486       0.00294238       0.00060646
C       -4.72703000      10.23421000      10.12509460      -0.00248125      -0.00979042       0.00060905
C       -5.31780000      12.62223000      10.12462890       0.01800315       0.00875443       0.00867488
C       -0.59093000       2.38802000      10.12248401      -0.19654592      -0.05266128      -0.02123967
C       -1.18178000       4.77591000      10.12679550      -0.12427784       0.13608269      -0.00923207
C       -1.77255000       7.16394000      10.12515560      -0.01046664      -0.00196915      -0.00156790
C       -2.36347000       9.55196000      10.12499536      -0.00327047      -0.00080917       0.00023201
C       -2.95440000      11.93998000      10.12508700       0.00963115      -0.00984709       0.00288599
C        1.77263000       1.70577000      10.12248339       0.14154055      -0.15366550      -0.02123282
C        1.18178000       4.09366000      10.12248315       0.05639077       0.20257005      -0.02125665
C        0.59085000       6.48168000      10.12462819       0.02379638      -0.00148227       0.00867524
C       -0.00008000       8.86970000      10.12509443      -0.00501002       0.00375716       0.00061964
C       -0.59077000      11.25759000      10.12498994      -0.00433048       0.00080648      -0.00049297
C        4.13610000       1.02338000      10.12462850      -0.01036402      -0.01505850       0.00867745
C        3.54517000       3.41140000      10.12679388       0.18468697       0.04346488      -0.00923294
C        2.95440000       5.79943000      10.12462939      -0.02241163       0.00722707       0.00867118
C        2.36355000       8.18732000      10.12508701      -0.00306982       0.01061057       0.00288379
C        1.77263000      10.57534000      10.12498994       0.00252634       0.00313753      -0.00049091
C        1.18170000      12.96336000      10.12498956       0.00062055       0.00157897      -0.00049212
C        6.49965000       0.34113000      10.12509465       0.00623475       0.00669512       0.00062059
C        5.90873000       2.72915000      10.12515471      -0.00125926       0.00903018      -0.00155650
C        5.31780000       5.11717000      10.12515515       0.00896608      -0.01098576      -0.00157588
C        4.72695000       7.50506000      10.12509488       0.01451702       0.00411832       0.00060456
C        4.13618000       9.89308000      10.12499548      -0.00452888       0.00190831       0.00023133
C        3.54525000      12.28111000      10.12509461      -0.00270857      -0.01620485       0.00061357
C        8.27212000       2.04690000      10.12499570       0.00481831      -0.00607689       0.00023157
C        7.68143000       4.43479000      10.12497266      -0.00495587       0.00255628       0.00060760
C        7.09050000       6.82281000      10.12498927      -0.00542112       0.00031154       0.00038072
C        6.49957000       9.21083000      10.12497253       0.00303797      -0.00348827       0.00060545
C        5.90873000      11.59872000      10.12515532       0.00810641      -0.00033537      -0.00157002
C       10.63575000       1.36451000      10.12508707      -0.00938877       0.00222292       0.00288285
C       10.04482000       3.75253000      10.12509435      -0.00408267       0.01210417       0.00060637
C        9.45390000       6.14055000      10.12498919       0.00190607      -0.00069898       0.00037900
C        8.86313000       8.52858000      10.12498927       0.00112788      -0.00403090       0.00037794
C        8.27228000      10.91647000      10.12515576      -0.01228005       0.00267031      -0.00158454
C       12.99915000       0.68225000      10.12463006      -0.00550838       0.02238066       0.00867588
C       12.40838000       3.07028000      10.12462884      -0.00483440      -0.02414320       0.00866430
C       11.81745000       5.45830000      10.12515567       0.00175897       0.00382589      -0.00158653
C       -6.69660000      12.28111000      10.12462915      -0.01855448      -0.00262827       0.00866946
C       12.80228000       4.43479000      10.12462856       0.00999899       0.02262967       0.00867128
C       -3.15135000       6.82281000      10.12508665      -0.00044977       0.00550026       0.00288507
C       -3.74228000       9.21083000      10.12499600       0.00113918      -0.00139321       0.00023157