157
Lattice="15.362700462 0.0 0.0 -7.681350231 13.304488871 0.0 0.0 0.0 24.0" Properties=species:S:1:pos:R:3:forces:R:3 energy=-1450.3331082040982 stress="-0.06564467864995903 -1.256497160618945e-08 1.016904723492006e-08 -1.256497160618945e-08 -0.06564460796732274 -8.436329360202074e-09 1.016904723492006e-08 -8.436329360202074e-09 -0.003655241503030707" free_energy=-1450.3331082040982 pbc="T T T"
C        0.00000000       0.00000000      13.67500000      -0.08818853      -0.30472981       0.18880178
C       -4.13610000       7.84619000      13.67500000      -0.00013113       0.00405035       0.03730881
C       -4.72703000      10.23421000      13.67500000      -0.00857658      -0.01379171       0.03654492
C       -5.31780000      12.62223000      13.67500000       0.04714227      -0.05431911       0.06129258
C       -0.59093000       2.38802000      13.67500000      -0.21524412       0.22528519       0.18869508
C       -1.18178000       4.77591000      13.67500000      -0.00086115      -0.01667571       0.03275513
C       -1.77255000       7.16394000      13.67500000      -0.00313716       0.00123707       0.03642690
C       -2.36347000       9.55196000      13.67500000      -0.00418391      -0.00206668       0.03730208
C       -2.95440000      11.93998000      13.67500000       0.01909445       0.00705657       0.03655585
C        1.77263000       1.70577000      13.67500000       0.30589014       0.07130824       0.18873271
C        1.18178000       4.09366000      13.67500000       0.01872077       0.07220930       0.06126865
C        0.59085000       6.48168000      13.67500000      -0.01655341       0.00673358       0.03654599
C       -0.00008000       8.86970000      13.67500000       0.00434559      -0.00336202       0.03730460
C       -0.59077000      11.25759000      13.67500000      -0.00490189       0.00334859       0.03730803
C        4.13610000       1.02338000      13.67500000      -0.01217814       0.01857604       0.03275006
C        3.54517000       3.41140000      13.67500000      -0.00098731      -0.02015737       0.03275353
C        2.95440000       5.79943000      13.67500000       0.01605476      -0.00742224       0.03656197
C        2.36355000       8.18732000      13.67500000      -0.00409663       0.00575587       0.03730762
C        1.77263000      10.57534000      13.67500000       0.00219511       0.00192161       0.03730052
C        1.18170000      12.96336000      13.67500000      -0.00057140       0.00085893       0.03729164
C        6.49965000       0.34113000      13.67500000      -0.00446806       0.00134392       0.03642274
C        5.90873000       2.72915000      13.67500000      -0.02216840      -0.00390000       0.03711636
C        5.31780000       5.11717000      13.67500000       0.00462570      -0.00440306       0.03642288
C        4.72695000       7.50506000      13.67500000       0.00217926       0.00319488       0.03730064
C        4.13618000       9.89308000      13.67500000      -0.00413767      -0.00050765       0.03641619
C        3.54525000      12.28111000      13.67500000       0.00025343      -0.02285634       0.03655857
C        8.27212000       2.04690000      13.67500000       0.00792586      -0.00480384       0.03732043
C        7.68143000       4.43479000      13.67500000      -0.00472037       0.00372516       0.03752453
C        7.09050000       6.82281000      13.67500000      -0.00290548      -0.00118364       0.03751484
C        6.49957000       9.21083000      13.67500000       0.00871259       0.01640074       0.03711968
C        5.90873000      11.59872000      13.67500000       0.02093542       0.00974626       0.03273821
C       10.63575000       1.36451000      13.67500000      -0.00835594       0.02148098       0.03655510
C       10.04482000       3.75253000      13.67500000       0.00224764       0.00197978       0.03642120
C        9.45390000       6.14055000      13.67500000       0.00049811       0.00058162       0.03750880
C        8.86313000       8.52858000      13.67500000      -0.00033153      -0.00491171       0.03643048
C        8.27228000      10.91647000      13.67500000      -0.01779187       0.01798916       0.03273640
C       12.99915000       0.68225000      13.67500000      -0.06372294      -0.01530514       0.06128391
C       12.40838000       3.07028000      13.67500000       0.01452732       0.00327962       0.03274507
C       11.81745000       5.45830000      13.67500000       0.01233337      -0.01829286       0.03713174
C       -6.69660000      12.28111000      13.67500000       0.09550207      -0.13133868       0.04863300
C       12.80228000       4.43479000      13.67500000      -0.01989478       0.02109815       0.02916213
C       -3.15135000       6.82281000      13.67500000       0.00734290       0.00658989       0.03191688
C       -3.74228000       9.21083000      13.67500000       0.00075041      -0.00239361       0.03238318
C       -4.33297000      11.59872000      13.67500000      -0.01526877       0.01283315       0.02228031
C        0.39390000       1.36451000      13.67500000       0.00092473       0.00520074       3.83162785
C       -0.19687000       3.75253000      13.67500000       0.01673335       0.15581478       0.04861685
C       -0.78780000       6.14055000      13.67500000       0.01017735       0.01662425       0.02876265
C       -1.37873000       8.52858000      13.67500000       0.00070968      -0.00414167       0.03231124
C       -1.96958000      10.91647000      13.67500000       0.00283517       0.00659690       0.03241650
C        5.12085000       0.00000000      13.67500000       0.01450249      -0.02077509       0.02876800
C        2.75745000       0.68225000      13.67500000       0.12142503      -0.09251427       0.04861541
C        2.16652000       3.07028000      13.67500000       0.06592485       0.14168960       0.04860559
C        1.57560000       5.45830000      13.67500000       0.00178544      -0.01537467       0.02227489
C        0.98475000       7.84619000      13.67500000      -0.00148905       0.00233283       0.03240782
C        0.39398000      10.23421000      13.67500000      -0.00208295      -0.00069951       0.03256250
C       -0.19695000      12.62223000      13.67500000      -0.00272697      -0.00184256       0.03230206
C        4.53008000       2.38802000      13.67500000       0.01917202       0.00354036       0.02914615
C        3.93923000       4.77591000      13.67500000      -0.00744846       0.02689393       0.02875938
C        3.34830000       7.16394000      13.67500000       0.00117636      -0.00247810       0.03239352
C        2.75737000       9.55196000      13.67500000       0.00467955      -0.00151239       0.03231053
C        2.16645000      11.93998000      13.67500000       0.00791238      -0.00391535       0.03241388
C        6.89347000       1.70577000      13.67500000       0.00671437      -0.00964113       0.03191162
C        6.30262000       4.09366000      13.67500000       0.00520013       0.01113239       0.03194054
C        5.71170000       6.48168000      13.67500000       0.00215307       0.00046570       0.03228458
C        5.12093000       8.86970000      13.67500000      -0.00905149      -0.00522160       0.03190707
C        4.53008000      11.25759000      13.67500000      -0.02751778       0.00575128       0.02876106
C        9.25710000       1.02338000      13.67500000      -0.00553429       0.00677288       0.03239022
C        8.66618000       3.41140000      13.67500000      -0.00144438      -0.00115132       0.03229169
C        8.07525000       5.79943000      13.67500000      -0.00125703      -0.00325480       0.03256237
C        7.48440000       8.18732000      13.67500000       0.00610942      -0.00080193       0.03193217
C        6.89347000      10.57534000      13.67500000      -0.00199908      -0.02356308       0.02916482
C        6.30270000      12.96336000      13.67500000      -0.14961087      -0.06097884       0.04863469
C       11.62050000       0.34113000      13.67500000       0.01451429       0.00247661       0.02229388
C       11.02957000       2.72915000      13.67500000      -0.01566735      -0.01414886       0.02876062
C       10.43865000       5.11717000      13.67500000      -0.00220087      -0.00467582       0.03193071
C        9.84795000       7.50506000      13.67500000      -0.00413453       0.00402180       0.03229627
C        9.25703000       9.89308000      13.67500000       0.01933225      -0.01023269       0.02876407
C       13.39313000       2.04690000      13.67500000      -0.15772754      -0.01863158       0.04861137
C       10.24177000       8.86970000      10.32500000      -0.00470757      -0.01326483      -0.03127489
C       -5.71178000      11.25759000      10.32500000       0.02576443       0.01925892      -0.03736163
C       -1.57568000       3.41140000      10.32500000      -0.13557802       0.14237277      -0.00536263
C       -2.16660000       5.79943000      10.32500000       0.00048584      -0.01188956      -0.03095930
C       -2.75730000       8.18732000      10.32500000      -0.00208996       0.00130518      -0.03237639
C       -3.34822000      10.57534000      10.32500000      -0.00015463      -0.00324950      -0.03089593
C       -3.93915000      12.96336000      10.32500000      -0.01808452      -0.02264805      -0.03737950
C        1.37865000       0.34113000      10.32500000       0.21265766      -0.21395874      -0.21237148
C        0.78788000       2.72915000      10.32500000       0.07792432       0.28715282      -0.21237085
C        0.19695000       5.11717000      10.32500000       0.02757506      -0.00659623      -0.03735275
C       -0.39390000       7.50506000      10.32500000      -0.01004463       0.00866494      -0.03127492
C       -0.98483000       9.89308000      10.32500000       0.00271380      -0.00048878      -0.03248539
C       -1.57575000      12.28111000      10.32500000       0.01732797       0.00257997      -0.03127871
C        3.15127000       2.04690000      10.32500000       0.19617890       0.04353548      -0.00536885
C        2.56042000       4.43479000      10.32500000      -0.02351938       0.01672768      -0.03735766
C        1.96965000       6.82281000      10.32500000      -0.00118603       0.00498457      -0.03089287
C        1.37873000       9.21083000      10.32500000      -0.00214839      -0.00312089      -0.03248560
C        0.78788000      11.59872000      10.32500000      -0.00366582       0.00473091      -0.03248052
C        5.51490000       1.36451000      10.32500000      -0.01095508       0.01013383      -0.03095380
C        4.92398000       3.75253000      10.32500000      -0.00617138      -0.00723958      -0.03094740
C        4.33305000       6.14055000      10.32500000       0.01264526      -0.00117844      -0.03127741
C        3.74212000       8.52858000      10.32500000       0.00631989      -0.00047421      -0.03237866
C        3.15127000      10.91647000      10.32500000       0.00622210      -0.01023000      -0.03127181
C       10.24185000       0.00000000      10.32500000      -0.01038840      -0.00211494      -0.03090214
C        7.87830000       0.68225000      10.32500000      -0.00052812       0.00074169      -0.03237134
C        7.28737000       3.07028000      10.32500000       0.00171199       0.00076921      -0.03271315
C        6.69660000       5.45830000      10.32500000      -0.00286119      -0.00352965      -0.03247275
C        6.10575000       7.84619000      10.32500000      -0.00515133       0.00297986      -0.03270377
C        5.51483000      10.23421000      10.32500000       0.00877938       0.00208989      -0.03095801
C        4.92390000      12.62223000      10.32500000      -0.00926400       0.02342378      -0.03736879
C        9.65093000       2.38802000      10.32500000      -0.00832928       0.00802710      -0.03127846
C        9.06008000       4.77591000      10.32500000       0.00008088       0.00145880      -0.03247382
C        8.46915000       7.16394000      10.32500000       0.00478842       0.00426899      -0.03247569
C        7.87822000       9.55196000      10.32500000      -0.00315240       0.00581447      -0.03095277
C        7.28745000      11.93998000      10.32500000      -0.05573913      -0.19525180      -0.00538952
C       12.01432000       1.70577000      10.32500000       0.00751459      -0.03196027      -0.03736081
C       11.42363000       4.09366000      10.32500000       0.00575850       0.00542607      -0.03094364
C       10.83270000       6.48168000      10.32500000      -0.00465244      -0.00047347      -0.03271346
C       14.37795000       1.02338000      10.32500000      -0.29522220      -0.06800909      -0.21238098
C        0.00000000       0.00000000      10.32500000      -0.08484062      -0.29468972      -0.22561552
C       -4.13610000       7.84619000      10.32500000      -0.00049097       0.00448691      -0.03735374
C       -4.72703000      10.23421000      10.32500000       0.00882958       0.00978483      -0.03556622
C       -5.31780000      12.62223000      10.32500000       0.13205619      -0.14377322      -0.00783205
C       -0.59093000       2.38802000      10.32500000      -0.20800004       0.21761445      -0.22547501
C       -1.18178000       4.77591000      10.32500000      -0.02367610      -0.01068489      -0.04101325
C       -1.77255000       7.16394000      10.32500000       0.00570581       0.00920959      -0.03594088
C       -2.36347000       9.55196000      10.32500000      -0.00223985      -0.00155311      -0.03763319
C       -2.95440000      11.93998000      10.32500000      -0.00717411      -0.00720691      -0.03556581
C        1.77263000       1.70577000      10.32500000       0.29550740       0.06888708      -0.22552928
C        1.18178000       4.09366000      10.32500000       0.05203883       0.19342530      -0.00784855
C        0.59085000       6.48168000      10.32500000       0.01116696      -0.00600565      -0.03557335
C       -0.00008000       8.86970000      10.32500000       0.00355409      -0.00370966      -0.03746395
C       -0.59077000      11.25759000      10.32500000      -0.00713256       0.00630790      -0.03746560
C        4.13610000       1.02338000      10.32500000       0.00076505       0.03279761      -0.04100854
C        3.54517000       3.41140000      10.32500000       0.01625899      -0.02470960      -0.04100901
C        2.95440000       5.79943000      10.32500000      -0.01230648      -0.00534104      -0.03555741
C        2.36355000       8.18732000      10.32500000      -0.00520746       0.00378756      -0.03763527
C        1.77263000      10.57534000      10.32500000       0.00324942      -0.00179130      -0.03744804
C        1.18170000      12.96336000      10.32500000       0.00491022      -0.00156894      -0.03764183
C        6.49965000       0.34113000      10.32500000       0.00290419      -0.01257603      -0.03593647
C        5.90873000       2.72915000      10.32500000       0.00460624      -0.00061169      -0.03574757
C        5.31780000       5.11717000      10.32500000       0.00438747       0.00927070      -0.03595511
C        4.72695000       7.50506000      10.32500000       0.00251592       0.00145297      -0.03734928
C        4.13618000       9.89308000      10.32500000      -0.01765462       0.00291869      -0.03594212
C        3.54525000      12.28111000      10.32500000      -0.00042876       0.00481393      -0.03556360
C        8.27212000       2.04690000      10.32500000       0.00691153      -0.00112293      -0.03734762
C        7.68143000       4.43479000      10.32500000      -0.00331879       0.00201631      -0.03738812
C        7.09050000       6.82281000      10.32500000      -0.00205102      -0.00071365      -0.03737597
C        6.49957000       9.21083000      10.32500000      -0.00092907      -0.01037201      -0.03573562
C        5.90873000      11.59872000      10.32500000       0.02675828      -0.00836850      -0.04100654
C       10.63575000       1.36451000      10.32500000       0.00157182      -0.00333311      -0.03557332
C       10.04482000       3.75253000      10.32500000      -0.00478138      -0.00733034      -0.03594914
C        9.45390000       6.14055000      10.32500000       0.00297461       0.00035791      -0.03739333
C        8.86313000       8.52858000      10.32500000       0.00717469      -0.00829964      -0.03595226
C        8.27228000      10.91647000      10.32500000      -0.03270931       0.00553365      -0.04100905
C       12.99915000       0.68225000      10.32500000      -0.19014314      -0.04415725      -0.00784475
C       12.40838000       3.07028000      10.32500000       0.01314919       0.02266132      -0.04099780
C       11.81745000       5.45830000      10.32500000      -0.00474822       0.00172113      -0.03574620
Li       0.39390000       1.36451000      12.00000000      -0.00000842       0.00018023      -3.37357592
157
Lattice="15.362700462 0.0 0.0 -7.681350231 13.304488871 0.0 0.0 0.0 24.0" Properties=species:S:1:pos:R:3:forces:R:3 energy=-1450.7380546112936 stress="-0.06566834762582749 2.1559423745096616e-08 -2.0073661711429745e-08 2.1559423745096616e-08 -0.06566822618177191 -1.556836429121125e-07 -2.0073661711429745e-08 -1.556836429121125e-07 -0.0028920462290593523" free_energy=-1450.7380546112936 pbc="T T T"
C        0.00000000       0.00000000      13.68110355      -0.06564382      -0.22662772       0.74678185
C       -4.13610000       7.84619000      13.67620611       0.00007780       0.00390497       0.03477194
C       -4.72703000      10.23421000      13.67618142      -0.00369580      -0.01532514       0.02839777
C       -5.31780000      12.62223000      13.67698145       0.04190104      -0.04884908       0.09600485
C       -0.59093000       2.38802000      13.68110010      -0.15925013       0.16702175       0.74712814
C       -1.18178000       4.77591000      13.67605890      -0.00758744      -0.01226464      -0.01926365
C       -1.77255000       7.16394000      13.67617760      -0.00474952       0.00140484       0.03213212
C       -2.36347000       9.55196000      13.67620589      -0.00441238      -0.00183455       0.03469742
C       -2.95440000      11.93998000      13.67618177       0.02043940       0.00211981       0.02840150
C        1.77263000       1.70577000      13.68110131       0.22723200       0.05198398       0.74704813
C        1.18178000       4.09366000      13.67698068       0.01660619       0.06492262       0.09597908
C        0.59085000       6.48168000      13.67618145      -0.01295358       0.01036659       0.02839318
C       -0.00008000       8.86970000      13.67620598       0.00449086      -0.00305164       0.03479532
C       -0.59077000      11.25759000      13.67620609      -0.00470673       0.00306790       0.03479735
C        4.13610000       1.02338000      13.67605874      -0.00496996       0.02219096      -0.01926275
C        3.54517000       3.41140000      13.67605885       0.00706525      -0.01999999      -0.01926837
C        2.95440000       5.79943000      13.67618197       0.01494623      -0.00242709       0.02840522
C        2.36355000       8.18732000      13.67620607      -0.00418295       0.00544141       0.03470069
C        1.77263000      10.57534000      13.67620584       0.00185356       0.00189259       0.03479336
C        1.18170000      12.96336000      13.67620556      -0.00025601       0.00094047       0.03469082
C        6.49965000       0.34113000      13.67617747      -0.00351215       0.00265611       0.03212807
C        5.90873000       2.72915000      13.67619989      -0.01752146      -0.00275736       0.03333767
C        5.31780000       5.11717000      13.67617747       0.00606566      -0.00511855       0.03213135
C        4.72695000       7.50506000      13.67620585       0.00220016       0.00344821       0.03476529
C        4.13618000       9.89308000      13.67617726      -0.00347939      -0.00199082       0.03212478
C        3.54525000      12.28111000      13.67618186      -0.00469590      -0.02155278       0.02840510
C        8.27212000       2.04690000      13.67620649       0.00769556      -0.00491141       0.03477788
C        7.68143000       4.43479000      13.67621309      -0.00464032       0.00372876       0.03485928
C        7.09050000       6.82281000      13.67621277      -0.00294213      -0.00125452       0.03485096
C        6.49957000       9.21083000      13.67620000       0.00737879       0.01180662       0.03334028
C        5.90873000      11.59872000      13.67605835       0.02044295       0.00169520      -0.01926725
C       10.63575000       1.36451000      13.67618175      -0.01212588       0.01801850       0.02840559
C       10.04482000       3.75253000      13.67617742       0.00214706       0.00358515       0.03212928
C        9.45390000       6.14055000      13.67621258       0.00045501       0.00064869       0.03484949
C        8.86313000       8.52858000      13.67617772      -0.00167170      -0.00580227       0.03213740
C        8.27228000      10.91647000      13.67605830      -0.02166605       0.01090723      -0.01926853
C       12.99915000       0.68225000      13.67698117      -0.05637857      -0.01348209       0.09599813
C       12.40838000       3.07028000      13.67605858       0.01036935       0.01017689      -0.01927548
C       11.81745000       5.45830000      13.67620039       0.00902065      -0.01483867       0.03334800
C       -6.69660000      12.28111000      13.67657220       0.08724870      -0.13289071       0.01536189
C       12.80228000       4.43479000      13.67594275      -0.01997906       0.02117989       0.03956369
C       -3.15135000       6.82281000      13.67603180       0.00773982       0.00583747       0.03430344
C       -3.74228000       9.21083000      13.67604688       0.00070286      -0.00170540       0.03449947
C       -4.33297000      11.59872000      13.67572027      -0.00955580       0.00690799       0.03578271
C        0.39390000       1.36451000      13.79886810       0.00097206       0.00490425      -0.18369006
C       -0.19687000       3.75253000      13.67657168       0.00875720       0.15334950       0.01534068
C       -0.78780000       6.14055000      13.67592983       0.00936410       0.01213400       0.03242427
C       -1.37873000       8.52858000      13.67604455       0.00039056      -0.00457451       0.03446166
C       -1.96958000      10.91647000      13.67604795       0.00212843       0.00667160       0.03453872
C        5.12085000       0.00000000      13.67593001       0.01100924      -0.01781480       0.03243011
C        2.75745000       0.68225000      13.67657163       0.12331697      -0.08443507       0.01536457
C        2.16652000       3.07028000      13.67657131       0.07135896       0.13529794       0.01534404
C        1.57560000       5.45830000      13.67572010       0.00406099      -0.00747370       0.03578331
C        0.98475000       7.84619000      13.67604767      -0.00120054       0.00168400       0.03453270
C        0.39398000      10.23421000      13.67605267      -0.00208241      -0.00069953       0.03464651
C       -0.19695000      12.62223000      13.67604425      -0.00294229      -0.00134911       0.03445457
C        4.53008000       2.38802000      13.67594223       0.01927856       0.00356701       0.03955382
C        3.93923000       4.77591000      13.67592973      -0.00915207       0.02264965       0.03241938
C        3.34830000       7.16394000      13.67604721       0.00060433      -0.00286335       0.03450771
C        2.75737000       9.55196000      13.67604453       0.00521440      -0.00157201       0.03446058
C        2.16645000      11.93998000      13.67604787       0.00832952      -0.00334078       0.03453398
C        6.89347000       1.70577000      13.67603163       0.00586290      -0.00960975       0.03429850
C        6.30262000       4.09366000      13.67603257       0.00445643       0.01070776       0.03435949
C        5.71170000       6.48168000      13.67604369       0.00215933      -0.00003921       0.03452121
C        5.12093000       8.86970000      13.67603149      -0.00859854      -0.00449940       0.03429185
C        4.53008000      11.25759000      13.67592978      -0.02320628       0.00729041       0.03241964
C        9.25710000       1.02338000      13.67604710      -0.00491305       0.00646916       0.03450568
C        8.66618000       3.41140000      13.67604392      -0.00101009      -0.00089320       0.03452973
C        8.07525000       5.79943000      13.67605267      -0.00125666      -0.00325427       0.03474242
C        7.48440000       8.18732000      13.67603230       0.00611368       0.00005290       0.03435407
C        6.89347000      10.57534000      13.67594283      -0.00202940      -0.02366949       0.03956184
C        6.30270000      12.96336000      13.67657225      -0.14346273      -0.06669147       0.01536040
C       11.62050000       0.34113000      13.67572071       0.00653117       0.00050297       0.03578884
C       11.02957000       2.72915000      13.67592977      -0.01114459      -0.01350454       0.03241723
C       10.43865000       5.11717000      13.67603225      -0.00146347      -0.00510622       0.03435233
C        9.84795000       7.50506000      13.67604407      -0.00457451       0.00426804       0.03452960
C        9.25703000       9.89308000      13.67592988       0.01650385      -0.00663041       0.03241489
C       13.39313000       2.04690000      13.67657150      -0.15489482      -0.01072632       0.01534680
C       10.24177000       8.86970000      10.32398895      -0.00515396      -0.01305711      -0.03380374
C       -5.71178000      11.25759000      10.32379218       0.02474721       0.02922354      -0.03308648
C       -1.57568000       3.41140000      10.32482664      -0.13768255       0.14456017      -0.03822007
C       -2.16660000       5.79943000      10.32399915       0.00043299      -0.01205750      -0.03242186
C       -2.75730000       8.18732000      10.32395334      -0.00184974       0.00107054      -0.03435576
C       -3.34822000      10.57534000      10.32400120      -0.00027447      -0.00312706      -0.03264628
C       -3.93915000      12.96336000      10.32379160      -0.02798793      -0.02124518      -0.03309168
C        1.37865000       0.34113000      10.31813450       0.26393204      -0.26730131      -0.28444850
C        0.78788000       2.72915000      10.31813452       0.09846819       0.35821142      -0.28436739
C        0.19695000       5.11717000      10.32379247       0.03132210      -0.01589779      -0.03308377
C       -0.39390000       7.50506000      10.32398895      -0.01034230       0.00827889      -0.03378892
C       -0.98483000       9.89308000      10.32394982       0.00266429      -0.00057196      -0.03481743
C       -1.57575000      12.28111000      10.32398883       0.01714196       0.00303098      -0.03379001
C        3.15127000       2.04690000      10.32482644       0.19913039       0.04424724      -0.03824038
C        2.56042000       4.43479000      10.32379231      -0.03162311       0.01086263      -0.03308928
C        1.96965000       6.82281000      10.32400130      -0.00123140       0.00482020      -0.03264492
C        1.37873000       9.21083000      10.32394981      -0.00205134      -0.00312122      -0.03481624
C        0.78788000      11.59872000      10.32394998      -0.00371228       0.00481395      -0.03481373
C        5.51490000       1.36451000      10.32399933      -0.01107641       0.01026289      -0.03241703
C        4.92398000       3.75253000      10.32399954      -0.00622716      -0.00741086      -0.03242304
C        4.33305000       6.14055000      10.32398887       0.01268991      -0.00166825      -0.03380245
C        3.74212000       8.52858000      10.32395327       0.00640247      -0.00014956      -0.03435658
C        3.15127000      10.91647000      10.32398905       0.00670277      -0.01029538      -0.03378227
C       10.24185000       0.00000000      10.32400100      -0.01021964      -0.00207053      -0.03265174
C        7.87830000       0.68225000      10.32395351      -0.00085158       0.00065145      -0.03435298
C        7.28737000       3.07028000      10.32394246       0.00128874       0.00071511      -0.03435457
C        6.69660000       5.45830000      10.32395023      -0.00319169      -0.00357500      -0.03434184
C        6.10575000       7.84619000      10.32394276      -0.00498621       0.00337196      -0.03434579
C        5.51483000      10.23421000      10.32399920       0.00895357       0.00213481      -0.03241589
C        4.92390000      12.62223000      10.32379195      -0.00309267       0.03128767      -0.03309308
C        9.65093000       2.38802000      10.32398884      -0.00792520       0.00830926      -0.03380521
C        9.06008000       4.77591000      10.32395019       0.00028650       0.00119495      -0.03434335
C        8.46915000       7.16394000      10.32395013       0.00491296       0.00457794      -0.03434308
C        7.87822000       9.55196000      10.32399936      -0.00327139       0.00595172      -0.03242239
C        7.28745000      11.93998000      10.32482577      -0.05657041      -0.19815383      -0.03827050
C       12.01432000       1.70577000      10.32379221       0.01665577      -0.03606261      -0.03308352
C       11.42363000       4.09366000      10.32399966       0.00593466       0.00546148      -0.03241888
C       10.83270000       6.48168000      10.32394245      -0.00439368      -0.00081292      -0.03435728
C       14.37795000       1.02338000      10.31813419      -0.36704758      -0.08581574      -0.28443502
C        0.00000000       0.00000000      10.31770635      -0.10549682      -0.36625390      -0.28208441
C       -4.13610000       7.84619000      10.32379244      -0.00074159       0.00474172      -0.03447204
C       -4.72703000      10.23421000      10.32385022       0.00896596       0.00998555      -0.03289577
C       -5.31780000      12.62223000      10.32474681       0.13405699      -0.14587624      -0.03574087