173
Lattice="16.131299972 0.0 0.0 -8.065649986 13.970115572 0.0 0.0 0.0 24.0" Properties=species:S:1:pos:R:3:forces:R:3 energy=-1598.9716005425494 stress="-0.0655509718633649 3.6164322847597814e-06 -1.6541171730208734e-08 3.6164322847597814e-06 -0.06554942949616874 -6.5741928183491805e-09 -1.6541171730208734e-08 -6.5741928183491805e-09 -0.003489214816576106" free_energy=-1598.9716005425494 pbc="T T T"
C        0.00000000       0.00000000      13.67500000      -0.04426419      -0.31168495       0.18878669
C       -0.93779000       2.27420000      13.67500000      -0.25586455       0.19616464       0.18888293
C       -1.87575000       4.54839000      13.67500000      -0.00036121      -0.01723692       0.03274706
C       -2.81354000       6.82259000      13.67500000      -0.00454241       0.00213301       0.03642604
C       -3.75150000       9.09678000      13.67500000       0.00050522       0.00237716       0.03725408
C       -4.68929000      11.37098000      13.67500000      -0.01374779      -0.01382973       0.03655096
C       -5.62724000      13.64517000      13.67500000       0.05722827      -0.03889386       0.06128362
C        1.50061000       1.94925000      13.67500000       0.29475646       0.12525217       0.18889275
C        0.56274000       4.22359000      13.67500000       0.00830200       0.06639212       0.06129910
C       -0.37521000       6.49778000      13.67500000      -0.01371863       0.00181618       0.03654429
C       -1.31301000       8.77198000      13.67500000      -0.00193707      -0.00382877       0.03731121
C       -2.25096000      11.04617000      13.67500000       0.00642464      -0.00434751       0.03733690
C       -3.18875000      13.32037000      13.67500000       0.01114789       0.00997924       0.03655369
C        3.93910000       1.62445000      13.67500000      -0.02114778       0.00955907       0.03273896
C        3.00115000       3.89864000      13.67500000      -0.00002003      -0.01970990       0.03275654
C        2.06335000       6.17284000      13.67500000       0.01487560       0.00201405       0.03656156
C        1.12540000       8.44703000      13.67500000       0.00197567       0.00546525       0.03733805
C        0.18761000      10.72123000      13.67500000      -0.00454957       0.00221440       0.03754880
C       -0.75035000      12.99542000      13.67500000       0.00153963       0.00435736       0.03729965
C        6.37751000       1.29950000      13.67500000      -0.00128604       0.00224700       0.03642254
C        5.43972000       3.57370000      13.67500000      -0.02389546      -0.00579358       0.03712383
C        4.50176000       5.84789000      13.67500000       0.00033764       0.00410099       0.03642238
C        3.56389000       8.12223000      13.67500000      -0.00014654      -0.00496132       0.03727768
C        2.62593000      10.39642000      13.67500000       0.00575381      -0.00279651       0.03729622
C        1.68814000      12.67062000      13.67500000      -0.00403152      -0.00436137       0.03734626
C        8.81600000       0.97469000      13.67500000      -0.00439193      -0.00030786       0.03726138
C        7.87804000       3.24889000      13.67500000       0.00595267      -0.00315824       0.03750709
C        6.94025000       5.52309000      13.67500000      -0.00196243      -0.00218993       0.03757096
C        6.00230000       7.79728000      13.67500000       0.00225545      -0.00006435       0.03752611
C        5.06450000      10.07148000      13.67500000      -0.00379051       0.00233674       0.03643305
C        4.12655000      12.34567000      13.67500000       0.00672730      -0.01447054       0.03655333
C       11.25440000       0.64975000      13.67500000      -0.00996254       0.01850498       0.03655660
C       10.31661000       2.92395000      13.67500000      -0.00451979       0.00234181       0.03642904
C        9.37866000       5.19814000      13.67500000       0.00064346       0.00199917       0.03755322
C        8.44086000       7.47234000      13.67500000      -0.00285589       0.00197837       0.03756176
C        7.50291000       9.74653000      13.67500000       0.00326716       0.02502628       0.03711810
C        6.56504000      12.02087000      13.67500000       0.01706957       0.00374456       0.03276710
C       13.69289000       0.32494000      13.67500000      -0.07009298      -0.02876048       0.06128911
C       12.75494000       2.59914000      13.67500000       0.02367957       0.00443320       0.03273962
C       11.81715000       4.87334000      13.67500000       0.01508032      -0.01593878       0.03712837
C       10.87919000       7.14753000      13.67500000       0.00441639      -0.00157545       0.03750647
C        9.94140000       9.42173000      13.67500000      -0.00192945      -0.00297962       0.03643677
C        9.00344000      11.69592000      13.67500000      -0.01198217       0.01296036       0.03274858
C       -6.00238000      10.82949000      13.67500000       0.02371915      -0.00389982       0.02876843
C       -6.94025000      13.10383000      13.67500000       0.10754269      -0.11689146       0.04860876
C        0.18761000       1.40791000      13.67500000      -0.00120449      -0.00497009       3.83145263
C       -0.75035000       3.68210000      13.67500000       0.00175689       0.15452796       0.04860700
C       -1.68814000       5.95630000      13.67500000       0.00900601       0.01870717       0.02875404
C       -2.62609000       8.23049000      13.67500000       0.00443830      -0.00289724       0.03228275
C       -3.56389000      10.50469000      13.67500000      -0.00453359      -0.00275976       0.03240618
C       -4.50184000      12.77888000      13.67500000      -0.00655182       0.00567920       0.02228547
C        2.62601000       1.08296000      13.67500000       0.13922587      -0.07836996       0.04861876
C        1.68822000       3.35716000      13.67500000       0.04004112       0.15014775       0.04863022
C        0.75027000       5.63135000      13.67500000      -0.00038017      -0.01019676       0.02228781
C       -0.18753000       7.90555000      13.67500000      -0.00650454       0.00002525       0.03241399
C       -1.12548000      10.17974000      13.67500000       0.00136314       0.00303573       0.03262129
C       -2.06327000      12.45394000      13.67500000      -0.00615270       0.00579293       0.03241247
C        5.06442000       0.75802000      13.67500000       0.01797993      -0.01774197       0.02876305
C        4.12663000       3.03221000      13.67500000       0.02424365       0.01396768       0.02916011
C        3.18875000       5.30655000      13.67500000      -0.00476352       0.01929575       0.02876113
C        2.25080000       7.58074000      13.67500000       0.00560243      -0.00490631       0.03241734
C        1.31301000       9.85494000      13.67500000      -0.00150445      -0.00283859       0.03261328
C        0.37505000      12.12913000      13.67500000       0.00486580      -0.00221406       0.03262137
C        7.50291000       0.43321000      13.67500000       0.00044430      -0.00198115       0.03228377
C        6.56512000       2.70741000      13.67500000       0.00355922      -0.00855483       0.03193058
C        5.62716000       4.98160000      13.67500000       0.00437010       0.00486016       0.03194748
C        4.68937000       7.25580000      13.67500000      -0.00380081      -0.00004072       0.03228624
C        3.75141000       9.52999000      13.67500000       0.00214196       0.00392959       0.03228440
C        2.81362000      11.80419000      13.67500000      -0.00161713       0.00191114       0.03241276
C        9.94132000       0.10827000      13.67500000       0.00597572       0.00444847       0.03240525
C        9.00352000       2.38246000      13.67500000       0.00154198       0.00271666       0.03228742
C        8.06573000       4.65666000      13.67500000      -0.00343203       0.00229286       0.03258949
C        7.12778000       6.93085000      13.67500000       0.00000845       0.00318966       0.03259914
C        6.18990000       9.20519000      13.67500000      -0.00751949      -0.00650477       0.03193675
C        5.25195000      11.47938000      13.67500000      -0.01940253      -0.00399160       0.02876269
C        4.31415000      13.75358000      13.67500000       0.01376023       0.00303035       0.02227790
C       11.44201000       2.05766000      13.67500000      -0.01972251      -0.01896372       0.02875915
C       10.50406000       4.33185000      13.67500000      -0.00201917      -0.00553125       0.03194394
C        9.56626000       6.60605000      13.67500000      -0.00153312      -0.00170600       0.03258972
C        8.62831000       8.88024000      13.67500000       0.01005009      -0.00630590       0.03194612
C        7.69052000      11.15444000      13.67500000      -0.00691944      -0.02495516       0.02915994
C        6.75256000      13.42863000      13.67500000      -0.12939731      -0.07825613       0.04860310
C       13.88042000       1.73271000      13.67500000      -0.15024715      -0.03447191       0.04859650
C       12.94263000       4.00691000      13.67500000      -0.02442600       0.01764228       0.02915587
C       12.00467000       6.28110000      13.67500000       0.00313735       0.01042847       0.03193810
C       11.06688000       8.55530000      13.67500000      -0.00403760       0.00287120       0.03227779
C        0.00000000       0.00000000      10.32500000      -0.03780301      -0.30583321      -0.22547634
C       -0.93779000       2.27420000      10.32500000      -0.24647385       0.18623112      -0.22558590
C       -1.87575000       4.54839000      10.32500000      -0.01966334      -0.01612546      -0.04102147
C       -2.81354000       6.82259000      10.32500000       0.00171243       0.01372893      -0.03593760
C       -3.75150000       9.09678000      10.32500000       0.00064135       0.00236183      -0.03740913
C       -4.68929000      11.37098000      10.32500000      -0.00257583       0.01195389      -0.03556079
C       -5.62724000      13.64517000      10.32500000       0.16114632      -0.11868617      -0.00785031
C        1.50061000       1.94925000      10.32500000       0.28428759       0.12125709      -0.22557502
C        0.56274000       4.22359000      10.32500000       0.02570766       0.19181626      -0.00782955
C       -0.37521000       6.49778000      10.32500000       0.01189847      -0.00760306      -0.03556358
C       -1.31301000       8.77198000      10.32500000      -0.00261813      -0.00446687      -0.03744872
C       -2.25096000      11.04617000      10.32500000       0.00321931      -0.00154289      -0.03769616
C       -3.18875000      13.32037000      10.32500000      -0.00753354      -0.00662804      -0.03557655
C        3.93910000       1.62445000      10.32500000      -0.00722851       0.02446370      -0.04101360
C        3.00115000       3.89864000      10.32500000       0.01948201      -0.02649157      -0.04102275
C        2.06335000       6.17284000      10.32500000      -0.01224178      -0.00328575      -0.03557189
C        1.12540000       8.44703000      10.32500000       0.00124966       0.00105355      -0.03770168
C        0.18761000      10.72123000      10.32500000      -0.00501288       0.00247259      -0.03754752
C       -0.75035000      12.99542000      10.32500000       0.00389352       0.00393279      -0.03745597
C        6.37751000       1.29950000      10.32500000       0.00820339      -0.00736643      -0.03594630
C        5.43972000       3.57370000      10.32500000       0.00144066       0.00496350      -0.03574179
C        4.50176000       5.84789000      10.32500000      -0.00170807       0.01622708      -0.03596194
C        3.56389000       8.12223000      10.32500000       0.00045820      -0.00486466      -0.03739828
C        2.62593000      10.39642000      10.32500000       0.00651103      -0.00293773      -0.03745845
C        1.68814000      12.67062000      10.32500000       0.00306251      -0.00155950      -0.03769440
C        8.81600000       0.97469000      10.32500000      -0.00181997      -0.00224439      -0.03739803
C        7.87804000       3.24889000      10.32500000       0.00627635      -0.00339250      -0.03739095
C        6.94025000       5.52309000      10.32500000      -0.00044382      -0.00259726      -0.03743590
C        6.00230000       7.79728000      10.32500000       0.00199501      -0.00388171      -0.03739607
C        5.06450000      10.07148000      10.32500000      -0.01600459      -0.00077051      -0.03595589
C        4.12655000      12.34567000      10.32500000       0.00509713       0.01164934      -0.03557028
C       11.25440000       0.64975000      10.32500000       0.00874728      -0.00319049      -0.03556797
C       10.31661000       2.92395000      10.32500000      -0.01380499      -0.00622488      -0.03594040
C        9.37866000       5.19814000      10.32500000       0.00042739       0.00335696      -0.03744841
C        8.44086000       7.47234000      10.32500000      -0.00436396       0.00163712      -0.03743412
C        7.50291000       9.74653000      10.32500000       0.00008680      -0.00282084      -0.03576439
C        6.56504000      12.02087000      10.32500000       0.02582889      -0.01341115      -0.04101776
C       13.69289000       0.32494000      10.32500000      -0.18371169      -0.07943003      -0.00784729
C       12.75494000       2.59914000      10.32500000       0.01680353       0.02304065      -0.04100874
C       11.81715000       4.87334000      10.32500000      -0.00693390       0.00115309      -0.03574003
C       10.87919000       7.14753000      10.32500000       0.00410471      -0.00061368      -0.03738954
C        9.94140000       9.42173000      10.32500000       0.01066785      -0.00683647      -0.03594348
C        9.00344000      11.69592000      10.32500000      -0.02438246      -0.00441811      -0.04102050
C       -3.00123000       5.41482000      10.32500000       0.00274942      -0.01207289      -0.03094218
C       -3.93902000       7.68901000      10.32500000      -0.00077632      -0.00223112      -0.03242120
C       -4.87698000       9.96321000      10.32500000      -0.00115482      -0.01374785      -0.03127058
C       -5.81477000      12.23740000      10.32500000       0.01979275       0.01609149      -0.03735540
C        1.31309000       0.54148000      10.32500000       0.23222287      -0.18476343      -0.21236307
C        0.37513000       2.81568000      10.32500000       0.04355475       0.29666404      -0.21240295
C       -0.56266000       5.08987000      10.32500000       0.02464616       0.00439395      -0.03736824
C       -1.50061000       7.36407000      10.32500000      -0.01080292       0.00657400      -0.03127360
C       -2.43841000       9.63826000      10.32500000      -0.00433040       0.00074519      -0.03248170
C       -3.37636000      11.91246000      10.32500000       0.00677171      -0.00056056      -0.03089321
C        3.75150000       0.21654000      10.32500000      -0.01435377      -0.02365431      -0.03735300
C        2.81370000       2.49073000      10.32500000       0.17891109       0.07825274      -0.00536415
C        1.87575000       4.76493000      10.32500000      -0.02670601       0.01321142      -0.03737516
C        0.93787000       7.03926000      10.32500000      -0.00005069       0.00291992      -0.03090506
C       -0.00008000       9.31346000      10.32500000       0.00476161      -0.00176274      -0.03253946
C       -0.93787000      11.58765000      10.32500000      -0.00097917      -0.00373402      -0.03254799
C       -1.87567000      13.86185000      10.32500000       0.00519830       0.00663419      -0.03127203
C        5.25203000       2.16593000      10.32500000      -0.00231515       0.00378134      -0.03094548
C        4.31424000       4.44012000      10.32500000      -0.00242331      -0.01237927      -0.03094921
C        3.37628000       6.71432000      10.32500000       0.01601549       0.00081988      -0.03127747
C        2.43849000       8.98851000      10.32500000      -0.00253112       0.00397665      -0.03248548
C        1.50053000      11.26271000      10.32500000       0.00113454       0.00310700      -0.03253975
C        0.56274000      13.53690000      10.32500000      -0.00316466       0.00288192      -0.03248245
C        7.69060000       1.84098000      10.32500000      -0.00483196       0.00173985      -0.03242174
C        6.75264000       4.11518000      10.32500000      -0.00004665       0.00207596      -0.03276456
C        5.81485000       6.38937000      10.32500000      -0.00629194       0.00301360      -0.03248579
C        4.87690000       8.66357000      10.32500000      -0.00033695       0.00459324      -0.03242017
C        3.93902000      10.93790000      10.32500000       0.00147277      -0.01646955      -0.03127928
C        3.00123000      13.21210000      10.32500000      -0.01051851      -0.00453742      -0.03089649
C       10.12892000       1.51618000      10.32500000      -0.00169018       0.00801814      -0.03126955
C        9.19113000       3.79037000      10.32500000      -0.00082279      -0.00467727      -0.03248219
C        8.25318000       6.06457000      10.32500000       0.00432932      -0.00256790      -0.03263011
C        7.31538000       8.33876000      10.32500000      -0.00119982      -0.00082624      -0.03277280
C        6.37743000      10.61296000      10.32500000       0.01263494       0.00320244      -0.03094508
C        5.43964000      12.88715000      10.32500000      -0.01822179       0.02630385      -0.03736451
C       12.56749000       1.19123000      10.32500000       0.00184468      -0.02524239      -0.03736107
C       11.62954000       3.46543000      10.32500000       0.01013897       0.00705805      -0.03094930
C       10.69174000       5.73962000      10.32500000      -0.00260570       0.00147612      -0.03277136
C        9.75379000       8.01382000      10.32500000       0.00289460       0.00435959      -0.03247389
C        8.81600000      10.28801000      10.32500000      -0.01239504       0.00779660      -0.03095266
C        7.87804000      12.56221000      10.32500000      -0.02489647      -0.19219742      -0.00536097
C       15.00590000       0.86629000      10.32500000      -0.27584929      -0.10983206      -0.21237540
C       14.06803000       3.14062000      10.32500000      -0.15841359       0.11752749      -0.00536658
Li       0.18761000       1.40791000      12.00000000      -0.00003279      -0.00009791      -3.37368079
173
Lattice="16.131299972 0.0 0.0 -8.065649986 13.970115572 0.0 0.0 0.0 24.0" Properties=species:S:1:pos:R:3:forces:R:3 energy=-1599.3772301147237 stress="-0.06557403857895783 3.5838071525019547e-06 2.066740801399018e-08 3.5838071525019547e-06 -0.06557261516803468 1.252851706319372e-07 2.066740801399018e-08 1.252851706319372e-07 -0.002795384641959585" free_energy=-1599.3772301147237 pbc="T T T"
C        0.00000000       0.00000000      13.68110910      -0.03344930      -0.23131495       0.74760158
C       -0.93779000       2.27420000      13.68111222      -0.19113688       0.14637746       0.74725102
C       -1.87575000       4.54839000      13.67605969      -0.00767837      -0.01384137      -0.01931452
C       -2.81354000       6.82259000      13.67617874      -0.00612366       0.00205082       0.03211103
C       -3.75150000       9.09678000      13.67620554       0.00080410       0.00224945       0.03474323
C       -4.68929000      11.37098000      13.67618278      -0.00868713      -0.01462426       0.02839015
C       -5.62724000      13.64517000      13.67698313       0.05121589      -0.03427090       0.09602738
C        1.50061000       1.94925000      13.68111253       0.21941423       0.09403157       0.74727688
C        0.56274000       4.22359000      13.67698363       0.00730261       0.05887897       0.09602706
C       -0.37521000       6.49778000      13.67618257      -0.01069399       0.00595191       0.02837937
C       -1.31301000       8.77198000      13.67620738      -0.00182133      -0.00350965       0.03479440
C       -2.25096000      11.04617000      13.67620822       0.00619228      -0.00413213       0.03471746
C       -3.18875000      13.32037000      13.67618287       0.01321550       0.00529090       0.02838569
C        3.93910000       1.62445000      13.67605943      -0.01454322       0.01418420      -0.01931849
C        3.00115000       3.89864000      13.67606000       0.00793641      -0.01834701      -0.01930627
C        2.06335000       6.17284000      13.67618313       0.01303539       0.00679697       0.02839743
C        1.12540000       8.44703000      13.67620825       0.00190559       0.00515640       0.03471883
C        0.18761000      10.72123000      13.67621507      -0.00454927       0.00221420       0.03492197
C       -0.75035000      12.99542000      13.67620701       0.00175767       0.00409715       0.03478802
C        6.37751000       1.29950000      13.67617863      -0.00056561       0.00365807       0.03210928
C        5.43972000       3.57370000      13.67620132      -0.01944346      -0.00396070       0.03334237
C        4.50176000       5.84789000      13.67617862       0.00187223       0.00361309       0.03211721
C        3.56389000       8.12223000      13.67620630      -0.00018625      -0.00463845       0.03475950
C        2.62593000      10.39642000      13.67620690       0.00541985      -0.00285549       0.03478459
C        1.68814000      12.67062000      13.67620852      -0.00372948      -0.00426746       0.03472228
C        8.81600000       0.97469000      13.67620577      -0.00465129      -0.00050339       0.03474893
C        7.87804000       3.24889000      13.67621372       0.00600394      -0.00307749       0.03483688
C        6.94025000       5.52309000      13.67621579      -0.00187027      -0.00219576       0.03489673
C        6.00230000       7.79728000      13.67621434       0.00229942      -0.00014928       0.03484976
C        5.06450000      10.07148000      13.67617897      -0.00292719       0.00100945       0.03211586
C        4.12655000      12.34567000      13.67618286       0.00163647      -0.01391873       0.02838402
C       11.25440000       0.64975000      13.67618296      -0.01317753       0.01451757       0.02838989
C       10.31661000       2.92395000      13.67617884      -0.00486356       0.00391407       0.03212162
C        9.37866000       5.19814000      13.67621522       0.00060273       0.00208168       0.03488494
C        8.44086000       7.47234000      13.67621549      -0.00290710       0.00190170       0.03489089
C        7.50291000       9.74653000      13.67620113       0.00263026       0.02025327       0.03334008
C        6.56504000      12.02087000      13.67606034       0.01780337      -0.00428166      -0.01930100
C       13.69289000       0.32494000      13.67698330      -0.06306653      -0.02586554       0.09601995
C       12.75494000       2.59914000      13.67605945       0.01851293       0.01062834      -0.01931072
C       11.81715000       4.87334000      13.67620147       0.01126617      -0.01300000       0.03334606
C       10.87919000       7.14753000      13.67621370       0.00432046      -0.00157090       0.03483619
C        9.94140000       9.42173000      13.67617909      -0.00311946      -0.00406156       0.03212603
C        9.00344000      11.69592000      13.67605974      -0.01478401       0.00541444      -0.01931872
C       -6.00238000      10.82949000      13.67593094       0.02039332      -0.00076006       0.03242333
C       -6.94025000      13.10383000      13.67657297       0.09961190      -0.11965195       0.01530999
C        0.18761000       1.40791000      13.79898509      -0.00127516      -0.00459218      -0.18628700
C       -0.75035000       3.68210000      13.67657291      -0.00579650       0.15098094       0.01536626
C       -1.68814000       5.95630000      13.67593048       0.00886209       0.01413750       0.03241362
C       -2.62609000       8.23049000      13.67604466       0.00424065      -0.00338476       0.03444613
C       -3.56389000      10.50469000      13.67604866      -0.00468988      -0.00207351       0.03452387
C       -4.50184000      12.77888000      13.67572115      -0.00003444       0.00065826       0.03579753
C        2.62601000       1.08296000      13.67657329       0.13987652      -0.06998168       0.01534582
C        1.68822000       3.35716000      13.67657366       0.04640083       0.14478610       0.01538080
C        0.75027000       5.63135000      13.67572123       0.00070216      -0.00204947       0.03580192
C       -0.18753000       7.90555000      13.67604891      -0.00612367      -0.00054387       0.03453251
C       -1.12548000      10.17974000      13.67605562       0.00135354       0.00306522       0.03472138
C       -2.06327000      12.45394000      13.67604886      -0.00683630       0.00574795       0.03453092
C        5.06442000       0.75802000      13.67593077       0.01408818      -0.01532619       0.03241765
C        4.12663000       3.03221000      13.67594362       0.02435385       0.01401793       0.03956802
C        3.18875000       5.30655000      13.67593070      -0.00582052       0.01484086       0.03241833
C        2.25080000       7.58074000      13.67604902       0.00508613      -0.00538526       0.03453593
C        1.31301000       9.85494000      13.67605536      -0.00152534      -0.00286140       0.03471384
C        0.37505000      12.12913000      13.67605562       0.00489554      -0.00222047       0.03472078
C        7.50291000       0.43321000      13.67604470       0.00012050      -0.00156634       0.03444569
C        6.56512000       2.70741000      13.67603327       0.00268975      -0.00860326       0.03435193
C        5.62716000       4.98160000      13.67603381       0.00371344       0.00431066       0.03435976
C        4.68937000       7.25580000      13.67604478      -0.00371427      -0.00059949       0.03448471
C        3.75141000       9.52999000      13.67604472       0.00266258       0.00400273       0.03444992
C        2.81362000      11.80419000      13.67604887      -0.00131356       0.00252521       0.03453211
C        9.94132000       0.10827000      13.67604863       0.00664874       0.00424112       0.03452740
C        9.00352000       2.38246000      13.67604481       0.00198252       0.00307002       0.03448001
C        8.06573000       4.65666000      13.67605459      -0.00347787       0.00229078       0.03481055
C        7.12778000       6.93085000      13.67605490       0.00003000       0.00323017       0.03482104
C        6.18990000       9.20519000      13.67603347      -0.00712658      -0.00572655       0.03436030
C        5.25195000      11.47938000      13.67593076      -0.01537539      -0.00182889       0.03242672
C        4.31415000      13.75358000      13.67572091       0.00615090      -0.00010524       0.03580006
C       11.44201000       2.05766000      13.67593064      -0.01532753      -0.01765044       0.03241345
C       10.50406000       4.33185000      13.67603370      -0.00121597      -0.00582404       0.03435577
C        9.56626000       6.60605000      13.67605460      -0.00150814      -0.00174491       0.03480927
C        8.62831000       8.88024000      13.67603377       0.00990076      -0.00546299       0.03435828
C        7.69052000      11.15444000      13.67594361      -0.00693553      -0.02507269       0.03956874
C        6.75256000      13.42863000      13.67657279      -0.12255231      -0.08298269       0.01535486
C       13.88042000       1.73271000      13.67657257      -0.14878302      -0.02628047       0.01535398
C       12.94263000       4.00691000      13.67594348      -0.02452219       0.01772165       0.03956221
C       12.00467000       6.28110000      13.67603351       0.00361466       0.00969880       0.03435819
C       11.06688000       8.55530000      13.67604450      -0.00456370       0.00307570       0.03447406
C        0.00000000       0.00000000      10.31770363      -0.04767320      -0.37974013      -0.28204526
C       -0.93779000       2.27420000      10.31770008      -0.30557710       0.23173934      -0.28217702
C       -1.87575000       4.54839000      10.32367255      -0.01698405      -0.02484182      -0.03324175
C       -2.81354000       6.82259000      10.32383707       0.00221085       0.01358434      -0.03377282
C       -3.75150000       9.09678000      10.32378945       0.00047434       0.00250929      -0.03440273
C       -4.68929000      11.37098000      10.32384926      -0.00247304       0.01217756      -0.03289167
C       -5.62724000      13.64517000      10.32474597       0.16343362      -0.12042440      -0.03575005
C        1.50061000       1.94925000      10.31770043       0.35325822       0.14965980      -0.28215444
C        0.56274000       4.22359000      10.32474664       0.02609206       0.19464443      -0.03576390
C       -0.37521000       6.49778000      10.32384917       0.01212532      -0.00769657      -0.03289883
C       -1.31301000       8.77198000      10.32378817      -0.00269485      -0.00481977      -0.03445396
C       -2.25096000      11.04617000      10.32378016       0.00277686      -0.00120166      -0.03445911
C       -3.18875000      13.32037000      10.32384875      -0.00772926      -0.00677682      -0.03290204
C        3.93910000       1.62445000      10.32367281      -0.01611431       0.02650053      -0.03323301
C        3.00115000       3.89864000      10.32367251       0.01461977      -0.03422645      -0.03323880
C        2.06335000       6.17284000      10.32384890      -0.01248538      -0.00330996      -0.03290465
C        1.12540000       8.44703000      10.32377998       0.00117520       0.00050003      -0.03446312
C        0.18761000      10.72123000      10.32378497      -0.00501244       0.00247245      -0.03491297
C       -0.75035000      12.99542000      10.32378793       0.00362581       0.00417591      -0.03445938