173
Lattice="16.131299972 0.0 0.0 -8.065649986 13.970115572 0.0 0.0 0.0 24.0" Properties=species:S:1:pos:R:3:forces:R:3 energy=-1599.9978008528042 stress="-0.0675050126396452 3.2328068738048787e-06 -3.6284029805073025e-18 3.2328068738048787e-06 -0.0675045081089435 -2.4964180014086338e-18 -3.6284029805073025e-18 -2.4964180014086338e-18 -5.551747055793425e-05" free_energy=-1599.9978008528042 pbc="T T T"
C        0.00000000       0.00000000      13.87500000      -0.02669464      -0.18054816      -0.02513540
C       -0.93779000       2.27420000      13.87500000      -0.19577641      -0.07658372       0.03526667
C       -1.87575000       4.54839000      13.87500000      -0.14443926       0.11520784      -0.02513466
C       -2.81354000       6.82259000      13.87500000      -0.01092727      -0.00236940      -0.00217210
C       -3.75150000       9.09678000      13.87500000       0.00260526       0.00321129       0.00012902
C       -4.68929000      11.37098000      13.87500000      -0.00836773      -0.00907004      -0.00132013
C       -5.62724000      13.64517000      13.87500000       0.01893391       0.01935618       0.00518716
C        1.50061000       1.94925000      13.87500000       0.16568244      -0.12239129       0.03523703
C        0.56274000       4.22359000      13.87500000       0.02637677       0.20173823       0.03523491
C       -0.37521000       6.49778000      13.87500000       0.02760189      -0.00058264       0.00518575
C       -1.31301000       8.77198000      13.87500000      -0.01209349       0.00183946      -0.00131731
C       -2.25096000      11.04617000      13.87500000       0.00475026      -0.00413864       0.00013710
C       -3.18875000      13.32037000      13.87500000       0.00436241      -0.00803323      -0.00122105
C        3.93910000       1.62445000      13.87500000      -0.01466939      -0.02349115       0.00519225
C        3.00115000       3.89864000      13.87500000       0.17370014       0.07047518      -0.02513750
C        2.06335000       6.17284000      13.87500000      -0.02565173       0.01045363       0.00518846
C        1.12540000       8.44703000      13.87500000       0.00238430       0.01038719      -0.00122288
C        0.18761000      10.72123000      13.87500000      -0.00427568       0.00303540       0.00016221
C       -0.75035000      12.99542000      13.87500000       0.00243918       0.00271649       0.00016048
C        6.37751000       1.29950000      13.87500000       0.00843237       0.00901402      -0.00132217
C        5.43972000       3.57370000      13.87500000      -0.00513962       0.01018822      -0.00217578
C        4.50176000       5.84789000      13.87500000       0.00557577      -0.00189123      -0.00217575
C        3.56389000       8.12223000      13.87500000       0.01061527      -0.00215075      -0.00131629
C        2.62593000      10.39642000      13.87500000       0.00594707      -0.00140575       0.00013691
C        1.68814000      12.67062000      13.87500000      -0.00228846      -0.00372194       0.00015900
C        8.81600000       0.97469000      13.87500000      -0.00624408      -0.00115483       0.00014139
C        7.87804000       3.24889000      13.87500000       0.00508336      -0.00351957       0.00013020
C        6.94025000       5.52309000      13.87500000      -0.00261892      -0.00349371       0.00040319
C        6.00230000       7.79728000      13.87500000       0.00125020       0.00077226       0.00015285
C        5.06450000      10.07148000      13.87500000      -0.00473608       0.00284218       0.00013381
C        4.12655000      12.34567000      13.87500000       0.00272734      -0.00852675      -0.00131824
C       11.25440000       0.64975000      13.87500000      -0.00811525      -0.00070989      -0.00121966
C       10.31661000       2.92395000      13.87500000      -0.01216815       0.01156400      -0.00131938
C        9.37866000       5.19814000      13.87500000       0.00185824       0.00094779       0.00014702
C        8.44086000       7.47234000      13.87500000      -0.00382502       0.00214713       0.00024942
C        7.50291000       9.74653000      13.87500000       0.00065069       0.00527109       0.00040020
C        6.56504000      12.02087000      13.87500000       0.00601663      -0.00791542      -0.00217482
C       13.69289000       0.32494000      13.87500000      -0.01781170       0.01753953       0.00520287
C       12.75494000       2.59914000      13.87500000       0.00875991      -0.02576514       0.00518887
C       11.81715000       4.87334000      13.87500000       0.00122824       0.00444763      -0.00217721
C       10.87919000       7.14753000      13.87500000       0.00513808      -0.00319828       0.00039781
C        9.94140000       9.42173000      13.87500000      -0.00051376      -0.00175959       0.00015349
C        9.00344000      11.69592000      13.87500000      -0.00433817      -0.00115099      -0.00218131
C       -6.00238000      10.82949000      13.87500000       0.01206627      -0.00090346      -0.00131400
C       -6.94025000      13.10383000      13.87500000      -0.02441186      -0.00620804       0.00520556
C        0.18761000       1.40791000      13.87500000      -0.02862802      -0.20993288       0.03527271
C       -0.75035000       3.68210000      13.87500000      -0.16024747       0.12460145       0.03521163
C       -1.68814000       5.95630000      13.87500000      -0.01934243      -0.01775506       0.00518340
C       -2.62609000       8.23049000      13.87500000       0.00823106       0.00893617      -0.00131999
C       -3.56389000      10.50469000      13.87500000      -0.00215703      -0.00327870       0.00012937
C       -4.50184000      12.77888000      13.87500000       0.01063725       0.00210551      -0.00217187
C        2.62601000       1.08296000      13.87500000       0.14856985      -0.11452076      -0.02513145
C        1.68822000       3.35716000      13.87500000       0.18852792       0.07881209       0.03522613
C        0.75027000       5.63135000      13.87500000       0.02571087       0.18578196      -0.02513170
C       -0.18753000       7.90555000      13.87500000       0.00373769       0.00384302      -0.00217730
C       -1.12548000      10.17974000      13.87500000       0.00014056       0.00170939       0.00015429
C       -2.06327000      12.45394000      13.87500000      -0.00592429       0.00325652       0.00039797
C        5.06442000       0.75802000      13.87500000       0.00172524      -0.00554221      -0.00217288
C        4.12663000       3.03221000      13.87500000      -0.00288903       0.02751220       0.00519156
C        3.18875000       5.30655000      13.87500000       0.01307574      -0.02334188       0.00519074
C        2.25080000       7.58074000      13.87500000      -0.00321731       0.00129996      -0.00217392
C        1.31301000       9.85494000      13.87500000      -0.00178447      -0.00387319       0.00039674
C        0.37505000      12.12913000      13.87500000       0.00485505      -0.00228773       0.00024968
C        7.50291000       0.43321000      13.87500000       0.00070455      -0.00014513       0.00014997
C        6.56512000       2.70741000      13.87500000       0.00558970      -0.01270673      -0.00132059
C        5.62716000       4.98160000      13.87500000       0.01105493       0.00056665      -0.00121781
C        4.68937000       7.25580000      13.87500000      -0.00438295       0.01144813      -0.00131872
C        3.75141000       9.52999000      13.87500000       0.00254080       0.00268120       0.00013538
C        2.81362000      11.80419000      13.87500000      -0.00298741       0.00220665       0.00014810
C        9.94132000       0.10827000      13.87500000       0.00527685       0.00213366       0.00040228
C        9.00352000       2.38246000      13.87500000       0.00155752       0.00428763       0.00013196
C        8.06573000       4.65666000      13.87500000      -0.00287325       0.00208541       0.00013694
C        7.12778000       6.93085000      13.87500000       0.00165931       0.00416723       0.00016514
C        6.18990000       9.20519000      13.87500000      -0.00160346      -0.00540596       0.00013963
C        5.25195000      11.47938000      13.87500000      -0.00737560      -0.00404503      -0.00132005
C        4.31415000      13.75358000      13.87500000      -0.00381350       0.00407187      -0.00218412
C       11.44201000       2.05766000      13.87500000      -0.00087554      -0.01138248      -0.00217542
C       10.50406000       4.33185000      13.87500000      -0.00531362      -0.00914810      -0.00131716
C        9.56626000       6.60605000      13.87500000      -0.00186713      -0.00215774       0.00015608
C        8.62831000       8.88024000      13.87500000       0.00368534      -0.00322087       0.00016076
C        7.69052000      11.15444000      13.87500000      -0.00464698      -0.00783591      -0.00121637
C        6.75256000      13.42863000      13.87500000       0.02681592      -0.00590126       0.00519026
C       13.88042000       1.73271000      13.87500000      -0.16903268      -0.06719274      -0.02514318
C       12.94263000       4.00691000      13.87500000       0.00535218       0.02366792       0.00519379
C       12.00467000       6.28110000      13.87500000      -0.00459781       0.00778659      -0.00121526
C       11.06688000       8.55530000      13.87500000      -0.00498019       0.00416354       0.00013704
C        0.00000000       0.00000000      10.12500000      -0.02669464      -0.18054816       0.02513540
C       -0.93779000       2.27420000      10.12500000      -0.19577641      -0.07658372      -0.03526667
C       -1.87575000       4.54839000      10.12500000      -0.14443926       0.11520784       0.02513466
C       -2.81354000       6.82259000      10.12500000      -0.01092727      -0.00236940       0.00217210
C       -3.75150000       9.09678000      10.12500000       0.00260526       0.00321129      -0.00012902
C       -4.68929000      11.37098000      10.12500000      -0.00836773      -0.00907004       0.00132013
C       -5.62724000      13.64517000      10.12500000       0.01893391       0.01935618      -0.00518716
C        1.50061000       1.94925000      10.12500000       0.16568244      -0.12239129      -0.03523703
C        0.56274000       4.22359000      10.12500000       0.02637677       0.20173823      -0.03523491
C       -0.37521000       6.49778000      10.12500000       0.02760189      -0.00058264      -0.00518575
C       -1.31301000       8.77198000      10.12500000      -0.01209349       0.00183946       0.00131731
C       -2.25096000      11.04617000      10.12500000       0.00475026      -0.00413864      -0.00013710
C       -3.18875000      13.32037000      10.12500000       0.00436241      -0.00803323       0.00122105
C        3.93910000       1.62445000      10.12500000      -0.01466939      -0.02349115      -0.00519225
C        3.00115000       3.89864000      10.12500000       0.17370014       0.07047518       0.02513750
C        2.06335000       6.17284000      10.12500000      -0.02565173       0.01045363      -0.00518846
C        1.12540000       8.44703000      10.12500000       0.00238430       0.01038719       0.00122288
C        0.18761000      10.72123000      10.12500000      -0.00427568       0.00303540      -0.00016221
C       -0.75035000      12.99542000      10.12500000       0.00243918       0.00271649      -0.00016048
C        6.37751000       1.29950000      10.12500000       0.00843237       0.00901402       0.00132217
C        5.43972000       3.57370000      10.12500000      -0.00513962       0.01018822       0.00217578
C        4.50176000       5.84789000      10.12500000       0.00557577      -0.00189123       0.00217575
C        3.56389000       8.12223000      10.12500000       0.01061527      -0.00215075       0.00131629
C        2.62593000      10.39642000      10.12500000       0.00594707      -0.00140575      -0.00013691
C        1.68814000      12.67062000      10.12500000      -0.00228846      -0.00372194      -0.00015900
C        8.81600000       0.97469000      10.12500000      -0.00624408      -0.00115483      -0.00014139
C        7.87804000       3.24889000      10.12500000       0.00508336      -0.00351957      -0.00013020
C        6.94025000       5.52309000      10.12500000      -0.00261892      -0.00349371      -0.00040319
C        6.00230000       7.79728000      10.12500000       0.00125020       0.00077226      -0.00015285
C        5.06450000      10.07148000      10.12500000      -0.00473608       0.00284218      -0.00013381
C        4.12655000      12.34567000      10.12500000       0.00272734      -0.00852675       0.00131824
C       11.25440000       0.64975000      10.12500000      -0.00811525      -0.00070989       0.00121966
C       10.31661000       2.92395000      10.12500000      -0.01216815       0.01156400       0.00131938
C        9.37866000       5.19814000      10.12500000       0.00185824       0.00094779      -0.00014702
C        8.44086000       7.47234000      10.12500000      -0.00382502       0.00214713      -0.00024942
C        7.50291000       9.74653000      10.12500000       0.00065069       0.00527109      -0.00040020
C        6.56504000      12.02087000      10.12500000       0.00601663      -0.00791542       0.00217482
C       13.69289000       0.32494000      10.12500000      -0.01781170       0.01753953      -0.00520287
C       12.75494000       2.59914000      10.12500000       0.00875991      -0.02576514      -0.00518887
C       11.81715000       4.87334000      10.12500000       0.00122824       0.00444763       0.00217721
C       10.87919000       7.14753000      10.12500000       0.00513808      -0.00319828      -0.00039781
C        9.94140000       9.42173000      10.12500000      -0.00051376      -0.00175959      -0.00015349
C        9.00344000      11.69592000      10.12500000      -0.00433817      -0.00115099       0.00218131
C       -6.00238000      10.82949000      10.12500000       0.01206627      -0.00090346       0.00131400
C       -6.94025000      13.10383000      10.12500000      -0.02441186      -0.00620804      -0.00520556
C        0.18761000       1.40791000      10.12500000      -0.02862802      -0.20993288      -0.03527271
C       -0.75035000       3.68210000      10.12500000      -0.16024747       0.12460145      -0.03521163
C       -1.68814000       5.95630000      10.12500000      -0.01934243      -0.01775506      -0.00518340
C       -2.62609000       8.23049000      10.12500000       0.00823106       0.00893617       0.00131999
C       -3.56389000      10.50469000      10.12500000      -0.00215703      -0.00327870      -0.00012937
C       -4.50184000      12.77888000      10.12500000       0.01063725       0.00210551       0.00217187
C        2.62601000       1.08296000      10.12500000       0.14856985      -0.11452076       0.02513145
C        1.68822000       3.35716000      10.12500000       0.18852792       0.07881209      -0.03522613
C        0.75027000       5.63135000      10.12500000       0.02571087       0.18578196       0.02513170
C       -0.18753000       7.90555000      10.12500000       0.00373769       0.00384302       0.00217730
C       -1.12548000      10.17974000      10.12500000       0.00014056       0.00170939      -0.00015429
C       -2.06327000      12.45394000      10.12500000      -0.00592429       0.00325652      -0.00039797
C        5.06442000       0.75802000      10.12500000       0.00172524      -0.00554221       0.00217288
C        4.12663000       3.03221000      10.12500000      -0.00288903       0.02751220      -0.00519156
C        3.18875000       5.30655000      10.12500000       0.01307574      -0.02334188      -0.00519074
C        2.25080000       7.58074000      10.12500000      -0.00321731       0.00129996       0.00217392
C        1.31301000       9.85494000      10.12500000      -0.00178447      -0.00387319      -0.00039674
C        0.37505000      12.12913000      10.12500000       0.00485505      -0.00228773      -0.00024968
C        7.50291000       0.43321000      10.12500000       0.00070455      -0.00014513      -0.00014997
C        6.56512000       2.70741000      10.12500000       0.00558970      -0.01270673       0.00132059
C        5.62716000       4.98160000      10.12500000       0.01105493       0.00056665       0.00121781
C        4.68937000       7.25580000      10.12500000      -0.00438295       0.01144813       0.00131872
C        3.75141000       9.52999000      10.12500000       0.00254080       0.00268120      -0.00013538
C        2.81362000      11.80419000      10.12500000      -0.00298741       0.00220665      -0.00014810
C        9.94132000       0.10827000      10.12500000       0.00527685       0.00213366      -0.00040228
C        9.00352000       2.38246000      10.12500000       0.00155752       0.00428763      -0.00013196
C        8.06573000       4.65666000      10.12500000      -0.00287325       0.00208541      -0.00013694
C        7.12778000       6.93085000      10.12500000       0.00165931       0.00416723      -0.00016514
C        6.18990000       9.20519000      10.12500000      -0.00160346      -0.00540596      -0.00013963
C        5.25195000      11.47938000      10.12500000      -0.00737560      -0.00404503       0.00132005
C        4.31415000      13.75358000      10.12500000      -0.00381350       0.00407187       0.00218412
C       11.44201000       2.05766000      10.12500000      -0.00087554      -0.01138248       0.00217542
C       10.50406000       4.33185000      10.12500000      -0.00531362      -0.00914810       0.00131716
C        9.56626000       6.60605000      10.12500000      -0.00186713      -0.00215774      -0.00015608
C        8.62831000       8.88024000      10.12500000       0.00368534      -0.00322087      -0.00016076
C        7.69052000      11.15444000      10.12500000      -0.00464698      -0.00783591       0.00121637
C        6.75256000      13.42863000      10.12500000       0.02681592      -0.00590126      -0.00519026
C       13.88042000       1.73271000      10.12500000      -0.16903268      -0.06719274       0.02514318
C       12.94263000       4.00691000      10.12500000       0.00535218       0.02366792      -0.00519379
C       12.00467000       6.28110000      10.12500000      -0.00459781       0.00778659       0.00121526
C       11.06688000       8.55530000      10.12500000      -0.00498019       0.00416354      -0.00013704
Li       0.37513000       2.81568000      12.00000000       0.00002507       0.00015706      -0.00000000
173
Lattice="16.131299972 0.0 0.0 -8.065649986 13.970115572 0.0 0.0 0.0 24.0" Properties=species:S:1:pos:R:3:forces:R:3 energy=-1599.9988152221856 stress="-0.06750979256865024 3.2336080770887367e-06 -8.760932459551126e-18 3.2336080770887367e-06 -0.067509288279247 -1.9525298381563547e-18 -8.760932459551126e-18 -1.9525298381563547e-18 -4.895173166855063e-05" free_energy=-1599.9988152221856 pbc="T T T"
C        0.00000000       0.00000000      13.87320461      -0.02676672      -0.18109217       0.00923705
C       -0.93779000       2.27420000      13.87751905      -0.19524316      -0.07636839       0.02122609
C       -1.87575000       4.54839000      13.87320467      -0.14487815       0.11554585       0.00919613
C       -2.81354000       6.82259000      13.87484485      -0.01097795      -0.00227377       0.00157409
C       -3.75150000       9.09678000      13.87500922       0.00261813       0.00319191      -0.00041473
C       -4.68929000      11.37098000      13.87490570      -0.00835804      -0.00908677      -0.00060542
C       -5.62724000      13.64517000      13.87537051       0.01895999       0.01896846      -0.00866494
C        1.50061000       1.94925000      13.87751693       0.16522537      -0.12204476       0.02124171
C        0.56274000       4.22359000      13.87751678       0.02630236       0.20117571       0.02122563
C       -0.37521000       6.49778000      13.87537041       0.02734832      -0.00028967      -0.00867926
C       -1.31301000       8.77198000      13.87490591      -0.01209827       0.00185792      -0.00064229
C       -2.25096000      11.04617000      13.87500979       0.00474647      -0.00413465       0.00049115
C       -3.18875000      13.32037000      13.87491278       0.00438459      -0.00805051      -0.00291053
C        3.93910000       1.62445000      13.87537088      -0.01428757      -0.02341795      -0.00867478
C        3.00115000       3.89864000      13.87320446       0.17421053       0.07068621       0.00921028
C        2.06335000       6.17284000      13.87537060      -0.02533026       0.01066967      -0.00867287
C        1.12540000       8.44703000      13.87491265       0.00238801       0.01041504      -0.00291230
C        0.18761000      10.72123000      13.87501159      -0.00428107       0.00303045       0.00047677
C       -0.75035000      12.99542000      13.87501146       0.00243758       0.00272364       0.00047597
C        6.37751000       1.29950000      13.87490556       0.00845067       0.00900888      -0.00064281
C        5.43972000       3.57370000      13.87484459      -0.00503094       0.01018452       0.00157554
C        4.50176000       5.84789000      13.87484459       0.00564976      -0.00181178       0.00157585
C        3.56389000       8.12223000      13.87490598       0.01062524      -0.00213398      -0.00060577
C        2.62593000      10.39642000      13.87500978       0.00594549      -0.00141098       0.00049051
C        1.68814000      12.67062000      13.87501136      -0.00228144      -0.00372413       0.00047570
C        8.81600000       0.97469000      13.87501010      -0.00623878      -0.00115357       0.00049293
C        7.87804000       3.24889000      13.87500930       0.00506012      -0.00352099      -0.00041445
C        6.94025000       5.52309000      13.87502880      -0.00264921      -0.00350664      -0.00060238
C        6.00230000       7.79728000      13.87501092       0.00123773       0.00075417      -0.00040474
C        5.06450000      10.07148000      13.87500956      -0.00472567       0.00286298      -0.00041173
C        4.12655000      12.34567000      13.87490584       0.00271369      -0.00853978      -0.00064721
C       11.25440000       0.64975000      13.87491288      -0.00814116      -0.00072085      -0.00291468
C       10.31661000       2.92395000      13.87490576      -0.01218752       0.01156414      -0.00060577
C        9.37866000       5.19814000      13.87501050       0.00188016       0.00094607      -0.00040873
C        8.44086000       7.47234000      13.87501782      -0.00382500       0.00214712       0.00035032
C        7.50291000       9.74653000      13.87502859       0.00065463       0.00530369      -0.00060261
C        6.56504000      12.02087000      13.87484466       0.00595892      -0.00800728       0.00157434
C       13.69289000       0.32494000      13.87537163      -0.01793841       0.01717249      -0.00867865
C       12.75494000       2.59914000      13.87537063       0.00841063      -0.02559455      -0.00867863
C       11.81715000       4.87334000      13.87484448       0.00112213       0.00447234       0.00158001
C       10.87919000       7.14753000      13.87502841       0.00516439      -0.00321808      -0.00060499
C        9.94140000       9.42173000      13.87501096      -0.00052323      -0.00173979      -0.00040596
C        9.00344000      11.69592000      13.87484419      -0.00430623      -0.00125475       0.00158336
C       -6.00238000      10.82949000      13.87490614       0.01207079      -0.00092179      -0.00064423
C       -6.94025000      13.10383000      13.87537183      -0.02415719      -0.00650202      -0.00867813
C        0.18761000       1.40791000      13.87751948      -0.02855217      -0.20935977       0.02123662
C       -0.75035000       3.68210000      13.87751512      -0.15979800       0.12425291       0.02124438
C       -1.68814000       5.95630000      13.87537024      -0.01936921      -0.01736855      -0.00867462
C       -2.62609000       8.23049000      13.87490572       0.00822153       0.00895325      -0.00060723
C       -3.56389000      10.50469000      13.87500924      -0.00216982      -0.00325931      -0.00041528
C       -4.50184000      12.77888000      13.87484487       0.01068820       0.00200947       0.00157171
C        2.62601000       1.08296000      13.87320490       0.14900609      -0.11485587       0.00921181
C        1.68822000       3.35716000      13.87751615       0.18800252       0.07859419       0.02123340
C        0.75027000       5.63135000      13.87320488       0.02578388       0.18633000       0.00921086
C       -0.18753000       7.90555000      13.87484448       0.00370599       0.00394709       0.00157231
C       -1.12548000      10.17974000      13.87501102       0.00015001       0.00168954      -0.00040569
C       -2.06327000      12.45394000      13.87502843      -0.00595057       0.00327624      -0.00060574
C        5.06442000       0.75802000      13.87484479       0.00183104      -0.00556635       0.00157356
C        4.12663000       3.03221000      13.87537083      -0.00254103       0.02734136      -0.00867502
C        3.18875000       5.30655000      13.87537077       0.01320281      -0.02297563      -0.00867755
C        2.25080000       7.58074000      13.87484472      -0.00315994       0.00139210       0.00157379
C        1.31301000       9.85494000      13.87502834      -0.00178845      -0.00390595      -0.00060569
C        0.37505000      12.12913000      13.87501783       0.00485505      -0.00228772       0.00035110
C        7.50291000       0.43321000      13.87501071       0.00068265      -0.00014342      -0.00040761
C        6.56512000       2.70741000      13.87490567       0.00560903      -0.01270680      -0.00060983
C        5.62716000       4.98160000      13.87491301       0.01108096       0.00057721      -0.00291022
C        4.68937000       7.25580000      13.87490581      -0.00436933       0.01146153      -0.00064067
C        3.75141000       9.52999000      13.87500967       0.00253042       0.00266037      -0.00041143
C        2.81362000      11.80419000      13.87501058      -0.00297496       0.00222478      -0.00040834
C        9.94132000       0.10827000      13.87502873       0.00530712       0.00214653      -0.00060329
C        9.00352000       2.38246000      13.87500943       0.00158075       0.00428907      -0.00041326
C        8.06573000       4.65666000      13.87500978      -0.00287856       0.00208413       0.00049058
C        7.12778000       6.93085000      13.87501180       0.00165235       0.00416944       0.00047888
C        6.18990000       9.20519000      13.87500997      -0.00160189      -0.00540070       0.00049310
C        5.25195000      11.47938000      13.87490571      -0.00738530      -0.00406175      -0.00060600
C        4.31415000      13.75358000      13.87484399      -0.00388773       0.00399227       0.00157941
C       11.44201000       2.05766000      13.87484461      -0.00098373      -0.01137835       0.00157326
C       10.50406000       4.33185000      13.87490592      -0.00533188      -0.00914290      -0.00064525
C        9.56626000       6.60605000      13.87501115      -0.00186553      -0.00216492       0.00047362
C        8.62831000       8.88024000      13.87501148       0.00369072      -0.00321590       0.00047728
C        7.69052000      11.15444000      13.87491312      -0.00465067      -0.00786380      -0.00291393
C        6.75256000      13.42863000      13.87537073       0.02649292      -0.00611820      -0.00866978
C       13.88042000       1.73271000      13.87320406      -0.16954113      -0.06740229       0.00923268
C       12.94263000       4.00691000      13.87537099       0.00497204       0.02359432      -0.00867151
C       12.00467000       6.28110000      13.87491320      -0.00462027       0.00780358      -0.00291122
C       11.06688000       8.55530000      13.87500979      -0.00497643       0.00415957       0.00049093
C        0.00000000       0.00000000      10.12679539      -0.02676672      -0.18109217      -0.00923705
C       -0.93779000       2.27420000      10.12248095      -0.19524316      -0.07636839      -0.02122609
C       -1.87575000       4.54839000      10.12679533      -0.14487815       0.11554585      -0.00919613
C       -2.81354000       6.82259000      10.12515515      -0.01097795      -0.00227377      -0.00157409
C       -3.75150000       9.09678000      10.12499078       0.00261813       0.00319191       0.00041473
C       -4.68929000      11.37098000      10.12509430      -0.00835804      -0.00908677       0.00060542
C       -5.62724000      13.64517000      10.12462949       0.01895999       0.01896846       0.00866494
C        1.50061000       1.94925000      10.12248307       0.16522537      -0.12204476      -0.02124171
C        0.56274000       4.22359000      10.12248322       0.02630236       0.20117571      -0.02122563
C       -0.37521000       6.49778000      10.12462959       0.02734832      -0.00028967       0.00867926
C       -1.31301000       8.77198000      10.12509409      -0.01209827       0.00185792       0.00064229
C       -2.25096000      11.04617000      10.12499021       0.00474647      -0.00413465      -0.00049115
C       -3.18875000      13.32037000      10.12508722       0.00438459      -0.00805051       0.00291053
C        3.93910000       1.62445000      10.12462912      -0.01428757      -0.02341795       0.00867478
C        3.00115000       3.89864000      10.12679554       0.17421053       0.07068621      -0.00921028
C        2.06335000       6.17284000      10.12462940      -0.02533026       0.01066967       0.00867287
C        1.12540000       8.44703000      10.12508735       0.00238801       0.01041504       0.00291230
C        0.18761000      10.72123000      10.12498841      -0.00428107       0.00303045      -0.00047677
C       -0.75035000      12.99542000      10.12498854       0.00243758       0.00272364      -0.00047597