193
Lattice="17.043199539 0.0 0.0 -8.52159977 14.759843763 0.0 0.0 0.0 24.0" Properties=species:S:1:pos:R:3:forces:R:3 energy=-1785.8072983178863 stress="-0.06742338893305383 1.2835823203748559e-05 -9.48182112680073e-19 1.2835823203748559e-05 -0.0674380380176595 1.562493896861714e-18 -9.48182112680073e-19 1.562493896861714e-18 -5.116769052474175e-05" free_energy=-1785.8072983178863 pbc="T T T"
C        0.00000000       0.00000000      13.87500000      -0.09229948      -0.15772292      -0.02513997
C       -2.13040000       3.68996000      13.87500000      -0.00518142      -0.02088796       0.00520210
C       12.78240000       7.37992000      13.87500000      -0.00013680       0.00024692       0.00015121
C       -6.39120000      11.06988000      13.87500000      -0.00814299      -0.00645857      -0.00132376
C        4.26080000       0.00000000      13.87500000      -0.01727658      -0.01391409       0.00519128
C        2.13040000       3.68996000      13.87500000       0.10369051       0.18160113       0.03521679
C       -0.00000000       7.37992000      13.87500000      -0.00792106       0.00022296      -0.00217553
C       -2.13040000      11.06988000      13.87500000       0.00037956       0.00145986       0.00015546
C        8.52160000       0.00000000      13.87500000      -0.00158043       0.00102875       0.00015003
C        6.39120000       3.68996000      13.87500000       0.00228707      -0.00577408      -0.00217782
C        4.26080000       7.37992000      13.87500000       0.00375998       0.00860347      -0.00122154
C        2.13040000      11.06988000      13.87500000      -0.00073728       0.00119499       0.00022813
C       12.78240000       0.00000000      13.87500000      -0.00357448      -0.00927746      -0.00132387
C       10.65200000       3.68996000      13.87500000      -0.00102253       0.00201888       0.00015560
C        8.52160000       7.37992000      13.87500000      -0.00061413       0.00091227       0.00022831
C        6.39120000      11.06988000      13.87500000       0.00041513       0.00315415       0.00039920
C       -0.00009000       2.46002000      13.87500000      -0.20384245      -0.00000177       0.03515395
C       -2.13049000       6.14998000      13.87500000       0.00939812       0.00588002      -0.00216926
C       -4.26089000       9.83995000      13.87500000       0.00431975      -0.00129698       0.00015547
C       -6.39129000      13.52991000      13.87500000       0.02608193       0.00659696       0.00519034
C        4.26071000       2.46002000      13.87500000       0.18818324      -0.00003830      -0.02511059
C        2.13031000       6.14998000      13.87500000       0.02615434      -0.00703097       0.00520027
C       -0.00009000       9.83995000      13.87500000       0.00532944      -0.00117217       0.00015059
C       -2.13049000      13.52991000      13.87500000       0.01552453       0.00238493      -0.00132382
C        8.52151000       2.46002000      13.87500000       0.00258224       0.00004625       0.00039948
C        6.39111000       6.14998000      13.87500000       0.01520922      -0.00271013      -0.00132497
C        4.26071000       9.83995000      13.87500000       0.00414176       0.00035653       0.00015552
C        2.13031000      13.52991000      13.87500000       0.00499112      -0.00041517       0.00022858
C       12.78231000       2.46002000      13.87500000      -0.00394281      -0.00000426      -0.00122157
C       10.65191000       6.14998000      13.87500000       0.00482681       0.00005390       0.00022818
C        8.52151000       9.83995000      13.87500000       0.00528282       0.00031707       0.00015031
C        6.39111000      13.52991000      13.87500000       0.00920383      -0.00627376      -0.00218191
C        2.13049000       1.22994000      13.87500000       0.09656867      -0.17599193       0.03515458
C        0.00009000       4.91990000      13.87500000      -0.09935686       0.16356957      -0.02511917
C       -2.13031000       8.60986000      13.87500000      -0.00655294       0.00298051       0.00040215
C       -4.26071000      12.29982000      13.87500000      -0.00320131      -0.00251035      -0.00121972
C        6.39129000       1.22994000      13.87500000      -0.00471947       0.01148327      -0.00217914
C        4.26089000       4.91990000      13.87500000      -0.02434826       0.01966356       0.00519303
C        2.13049000       8.60986000      13.87500000      -0.01525900       0.01258863      -0.00132090
C        0.00009000      12.29982000      13.87500000      -0.00769013       0.00508360       0.00023061
C       10.65208000       1.22994000      13.87500000      -0.00754948       0.00376636       0.00015771
C        8.52168000       4.91990000      13.87500000      -0.00805162       0.00481591       0.00015275
C        6.39129000       8.60986000      13.87500000      -0.00662351       0.00474821       0.00015808
C        4.26089000      12.29982000      13.87500000      -0.00729592       0.00577840       0.00015281
C       14.91288000       1.22994000      13.87500000      -0.01175580       0.02671760       0.00519184
C       12.78248000       4.91990000      13.87500000      -0.00990288       0.01522588      -0.00132135
C       10.65208000       8.60986000      13.87500000      -0.00710001       0.00506790       0.00023072
C        8.52168000      12.29982000      13.87500000      -0.01444358       0.00579919      -0.00217974
C       15.62290000       2.46002000      13.87500000      -0.18412776      -0.00168793      -0.02511630
C       -3.55069000       6.14998000      13.87500000      -0.01181136      -0.00448870      -0.00132514
C       -5.68109000       9.83995000      13.87500000      -0.00190223      -0.00146317       0.00015039
C        9.23170000      13.52991000      13.87500000      -0.02225034       0.00494528       0.00519136
C        2.84050000       2.46002000      13.87500000       0.20778578      -0.00166938       0.03528573
C        0.71010000       6.14998000      13.87500000      -0.02207771      -0.00870544       0.00518580
C       -1.42030000       9.83995000      13.87500000      -0.00006355      -0.00130178       0.00015543
C       -3.55069000      13.52991000      13.87500000      -0.00571157      -0.00796014      -0.00217759
C        7.10130000       2.46002000      13.87500000       0.00794968      -0.00162902      -0.00122224
C        4.97090000       6.14998000      13.87500000      -0.00512453       0.00429045      -0.00217839
C        2.84050000       9.83995000      13.87500000      -0.00125442      -0.00283716       0.00015023
C        0.71010000      13.52991000      13.87500000      -0.00088963      -0.00206068       0.00022831
C       11.36210000       2.46002000      13.87500000       0.00136738      -0.00170626       0.00039925
C        9.23170000       6.14998000      13.87500000      -0.00093969      -0.00165094       0.00022812
C        7.10130000       9.83995000      13.87500000      -0.00005728      -0.00290026       0.00015542
C        4.97090000      13.52991000      13.87500000      -0.01122910       0.00073871      -0.00132311
C        0.71002000       1.23009000      13.87500000      -0.09675283      -0.18380023       0.03522521
C       -1.42038000       4.92005000      13.87500000       0.02413788       0.01156289       0.00517180
C       -3.55078000       8.61001000      13.87500000       0.00632709      -0.00339581       0.00015808
C       -5.68118000      12.29997000      13.87500000       0.01469898      -0.00224740      -0.00217597
C        4.97082000       1.23009000      13.87500000       0.01186633       0.01870713       0.00519296
C        2.84042000       4.92005000      13.87500000       0.09894525       0.15557943      -0.02512603
C        0.71002000       8.61001000      13.87500000       0.01491859       0.00449057      -0.00132204
C       -1.42038000      12.29997000      13.87500000       0.00699628      -0.00237259       0.00015267
C        9.23162000       1.23009000      13.87500000       0.00752553      -0.00435788       0.00015770
C        7.10122000       4.92005000      13.87500000       0.00996574       0.00703978      -0.00132232
C        4.97082000       8.61001000      13.87500000       0.00619709      -0.00511712       0.00040183
C        2.84042000      12.29997000      13.87500000       0.00733378      -0.00303922       0.00023069
C       13.49242000       1.23009000      13.87500000       0.00419361       0.00339564      -0.00217730
C       11.36202000       4.92005000      13.87500000       0.00809558      -0.00326525       0.00015267
C        9.23162000       8.61001000      13.87500000       0.00723143      -0.00309138       0.00023078
C        7.10122000      12.29997000      13.87500000       0.00274743      -0.01069347      -0.00121895
C        2.84059000       0.00000000      13.87500000       0.08857823      -0.15930603      -0.02514127
C        0.71019000       3.68996000      13.87500000      -0.10742423       0.17987355       0.03529882
C       -1.42021000       7.37992000      13.87500000      -0.00745218       0.00686525      -0.00122355
C       -3.55061000      11.06988000      13.87500000      -0.00418006       0.00146213       0.00039929
C        7.10139000       0.00000000      13.87500000      -0.00018485      -0.01102250      -0.00132302
C        4.97099000       3.68996000      13.87500000       0.00146237      -0.02270766       0.00518977
C        2.84059000       7.37992000      13.87500000       0.00418894      -0.00152831      -0.00218285
C        0.71019000      11.06988000      13.87500000      -0.00298666      -0.00058053       0.00022814
C       11.36219000       0.00000000      13.87500000      -0.00230868      -0.00064225       0.00015040
C        9.23179000       3.68996000      13.87500000      -0.00286383       0.00030302       0.00015562
C        7.10139000       7.37992000      13.87500000      -0.00350540      -0.00152648       0.00015077
C        4.97099000      11.06988000      13.87500000      -0.00411185      -0.00033579       0.00015550
C       15.62299000       0.00000000      13.87500000       0.01355649      -0.01551819       0.00519670
C       13.49259000       3.68996000      13.87500000      -0.00622328      -0.00744613      -0.00218270
C       11.36219000       7.37992000      13.87500000      -0.00323827      -0.00079235       0.00022870
C        9.23179000      11.06988000      13.87500000       0.00444126      -0.00816658      -0.00132234
C        0.00000000       0.00000000      10.12500000      -0.09229948      -0.15772292       0.02513997
C       -2.13040000       3.68996000      10.12500000      -0.00518142      -0.02088796      -0.00520210
C       12.78240000       7.37992000      10.12500000      -0.00013680       0.00024692      -0.00015121
C       -6.39120000      11.06988000      10.12500000      -0.00814299      -0.00645857       0.00132376
C        4.26080000       0.00000000      10.12500000      -0.01727658      -0.01391409      -0.00519128
C        2.13040000       3.68996000      10.12500000       0.10369051       0.18160113      -0.03521679
C       -0.00000000       7.37992000      10.12500000      -0.00792106       0.00022296       0.00217553
C       -2.13040000      11.06988000      10.12500000       0.00037956       0.00145986      -0.00015546
C        8.52160000       0.00000000      10.12500000      -0.00158043       0.00102875      -0.00015003
C        6.39120000       3.68996000      10.12500000       0.00228707      -0.00577408       0.00217782
C        4.26080000       7.37992000      10.12500000       0.00375998       0.00860347       0.00122154
C        2.13040000      11.06988000      10.12500000      -0.00073728       0.00119499      -0.00022813
C       12.78240000       0.00000000      10.12500000      -0.00357448      -0.00927746       0.00132387
C       10.65200000       3.68996000      10.12500000      -0.00102253       0.00201888      -0.00015560
C        8.52160000       7.37992000      10.12500000      -0.00061413       0.00091227      -0.00022831
C        6.39120000      11.06988000      10.12500000       0.00041513       0.00315415      -0.00039920
C       -0.00009000       2.46002000      10.12500000      -0.20384245      -0.00000177      -0.03515395
C       -2.13049000       6.14998000      10.12500000       0.00939812       0.00588002       0.00216926
C       -4.26089000       9.83995000      10.12500000       0.00431975      -0.00129698      -0.00015547
C       -6.39129000      13.52991000      10.12500000       0.02608193       0.00659696      -0.00519034
C        4.26071000       2.46002000      10.12500000       0.18818324      -0.00003830       0.02511059
C        2.13031000       6.14998000      10.12500000       0.02615434      -0.00703097      -0.00520027
C       -0.00009000       9.83995000      10.12500000       0.00532944      -0.00117217      -0.00015059
C       -2.13049000      13.52991000      10.12500000       0.01552453       0.00238493       0.00132382
C        8.52151000       2.46002000      10.12500000       0.00258224       0.00004625      -0.00039948
C        6.39111000       6.14998000      10.12500000       0.01520922      -0.00271013       0.00132497
C        4.26071000       9.83995000      10.12500000       0.00414176       0.00035653      -0.00015552
C        2.13031000      13.52991000      10.12500000       0.00499112      -0.00041517      -0.00022858
C       12.78231000       2.46002000      10.12500000      -0.00394281      -0.00000426       0.00122157
C       10.65191000       6.14998000      10.12500000       0.00482681       0.00005390      -0.00022818
C        8.52151000       9.83995000      10.12500000       0.00528282       0.00031707      -0.00015031
C        6.39111000      13.52991000      10.12500000       0.00920383      -0.00627376       0.00218191
C        2.13049000       1.22994000      10.12500000       0.09656867      -0.17599193      -0.03515458
C        0.00009000       4.91990000      10.12500000      -0.09935686       0.16356957       0.02511917
C       -2.13031000       8.60986000      10.12500000      -0.00655294       0.00298051      -0.00040215
C       -4.26071000      12.29982000      10.12500000      -0.00320131      -0.00251035       0.00121972
C        6.39129000       1.22994000      10.12500000      -0.00471947       0.01148327       0.00217914
C        4.26089000       4.91990000      10.12500000      -0.02434826       0.01966356      -0.00519303
C        2.13049000       8.60986000      10.12500000      -0.01525900       0.01258863       0.00132090
C        0.00009000      12.29982000      10.12500000      -0.00769013       0.00508360      -0.00023061
C       10.65208000       1.22994000      10.12500000      -0.00754948       0.00376636      -0.00015771
C        8.52168000       4.91990000      10.12500000      -0.00805162       0.00481591      -0.00015275
C        6.39129000       8.60986000      10.12500000      -0.00662351       0.00474821      -0.00015808
C        4.26089000      12.29982000      10.12500000      -0.00729592       0.00577840      -0.00015281
C       14.91288000       1.22994000      10.12500000      -0.01175580       0.02671760      -0.00519184
C       12.78248000       4.91990000      10.12500000      -0.00990288       0.01522588       0.00132135
C       10.65208000       8.60986000      10.12500000      -0.00710001       0.00506790      -0.00023072
C        8.52168000      12.29982000      10.12500000      -0.01444358       0.00579919       0.00217974
C       15.62290000       2.46002000      10.12500000      -0.18412776      -0.00168793       0.02511630
C       -3.55069000       6.14998000      10.12500000      -0.01181136      -0.00448870       0.00132514
C       -5.68109000       9.83995000      10.12500000      -0.00190223      -0.00146317      -0.00015039
C        9.23170000      13.52991000      10.12500000      -0.02225034       0.00494528      -0.00519136
C        2.84050000       2.46002000      10.12500000       0.20778578      -0.00166938      -0.03528573
C        0.71010000       6.14998000      10.12500000      -0.02207771      -0.00870544      -0.00518580
C       -1.42030000       9.83995000      10.12500000      -0.00006355      -0.00130178      -0.00015543
C       -3.55069000      13.52991000      10.12500000      -0.00571157      -0.00796014       0.00217759
C        7.10130000       2.46002000      10.12500000       0.00794968      -0.00162902       0.00122224
C        4.97090000       6.14998000      10.12500000      -0.00512453       0.00429045       0.00217839
C        2.84050000       9.83995000      10.12500000      -0.00125442      -0.00283716      -0.00015023
C        0.71010000      13.52991000      10.12500000      -0.00088963      -0.00206068      -0.00022831
C       11.36210000       2.46002000      10.12500000       0.00136738      -0.00170626      -0.00039925
C        9.23170000       6.14998000      10.12500000      -0.00093969      -0.00165094      -0.00022812
C        7.10130000       9.83995000      10.12500000      -0.00005728      -0.00290026      -0.00015542
C        4.97090000      13.52991000      10.12500000      -0.01122910       0.00073871       0.00132311
C        0.71002000       1.23009000      10.12500000      -0.09675283      -0.18380023      -0.03522521
C       -1.42038000       4.92005000      10.12500000       0.02413788       0.01156289      -0.00517180
C       -3.55078000       8.61001000      10.12500000       0.00632709      -0.00339581      -0.00015808
C       -5.68118000      12.29997000      10.12500000       0.01469898      -0.00224740       0.00217597
C        4.97082000       1.23009000      10.12500000       0.01186633       0.01870713      -0.00519296
C        2.84042000       4.92005000      10.12500000       0.09894525       0.15557943       0.02512603
C        0.71002000       8.61001000      10.12500000       0.01491859       0.00449057       0.00132204
C       -1.42038000      12.29997000      10.12500000       0.00699628      -0.00237259      -0.00015267
C        9.23162000       1.23009000      10.12500000       0.00752553      -0.00435788      -0.00015770
C        7.10122000       4.92005000      10.12500000       0.00996574       0.00703978       0.00132232
C        4.97082000       8.61001000      10.12500000       0.00619709      -0.00511712      -0.00040183
C        2.84042000      12.29997000      10.12500000       0.00733378      -0.00303922      -0.00023069
C       13.49242000       1.23009000      10.12500000       0.00419361       0.00339564       0.00217730
C       11.36202000       4.92005000      10.12500000       0.00809558      -0.00326525      -0.00015267
C        9.23162000       8.61001000      10.12500000       0.00723143      -0.00309138      -0.00023078
C        7.10122000      12.29997000      10.12500000       0.00274743      -0.01069347       0.00121895
C        2.84059000       0.00000000      10.12500000       0.08857823      -0.15930603       0.02514127
C        0.71019000       3.68996000      10.12500000      -0.10742423       0.17987355      -0.03529882
C       -1.42021000       7.37992000      10.12500000      -0.00745218       0.00686525       0.00122355
C       -3.55061000      11.06988000      10.12500000      -0.00418006       0.00146213      -0.00039929
C        7.10139000       0.00000000      10.12500000      -0.00018485      -0.01102250       0.00132302
C        4.97099000       3.68996000      10.12500000       0.00146237      -0.02270766      -0.00518977
C        2.84059000       7.37992000      10.12500000       0.00418894      -0.00152831       0.00218285
C        0.71019000      11.06988000      10.12500000      -0.00298666      -0.00058053      -0.00022814
C       11.36219000       0.00000000      10.12500000      -0.00230868      -0.00064225      -0.00015040
C        9.23179000       3.68996000      10.12500000      -0.00286383       0.00030302      -0.00015562
C        7.10139000       7.37992000      10.12500000      -0.00350540      -0.00152648      -0.00015077
C        4.97099000      11.06988000      10.12500000      -0.00411185      -0.00033579      -0.00015550
C       15.62299000       0.00000000      10.12500000       0.01355649      -0.01551819      -0.00519670
C       13.49259000       3.68996000      10.12500000      -0.00622328      -0.00744613       0.00218270
C       11.36219000       7.37992000      10.12500000      -0.00323827      -0.00079235      -0.00022870
C        9.23179000      11.06988000      10.12500000       0.00444126      -0.00816658       0.00132234
Li       1.42030000       2.46002000      12.00000000      -0.00009260      -0.00025320      -0.00000000
193
Lattice="17.043199539 0.0 0.0 -8.52159977 14.759843763 0.0 0.0 0.0 24.0" Properties=species:S:1:pos:R:3:forces:R:3 energy=-1785.8083118873158 stress="-0.06742767480186511 1.2834952855197298e-05 -3.931462626057222e-18 1.2834952855197298e-05 -0.0674423211565294 2.719188819982334e-18 -3.931462626057222e-18 2.719188819982334e-18 -4.526706996743588e-05" free_energy=-1785.8083118873158 pbc="T T T"
C        0.00000000       0.00000000      13.87320429      -0.09257639      -0.15820317       0.00920838
C       -2.13040000       3.68996000      13.87537158      -0.00543671      -0.02059811      -0.00866906
C       12.78240000       7.37992000      13.87501080      -0.00011837       0.00023622      -0.00044847
C       -6.39120000      11.06988000      13.87490545      -0.00814109      -0.00647778      -0.00063803
C        4.26080000       0.00000000      13.87537081      -0.01689821      -0.01399021      -0.00866985
C        2.13040000       3.68996000      13.87751548       0.10340088       0.18110009       0.02127421
C        0.00000000       7.37992000      13.87484461      -0.00793121       0.00033157       0.00155979
C       -2.13040000      11.06988000      13.87501110       0.00037867       0.00146803       0.00049306
C        8.52160000       0.00000000      13.87501072      -0.00159894       0.00103934      -0.00044829
C        6.39120000       3.68996000      13.87484444       0.00238646      -0.00572868       0.00156250
C        4.26080000       7.37992000      13.87491275       0.00377414       0.00862809      -0.00291086
C        2.13040000      11.06988000      13.87501629      -0.00073237       0.00119735       0.00031589
C       12.78240000       0.00000000      13.87490544      -0.00359196      -0.00928532      -0.00063934
C       10.65200000       3.68996000      13.87501111      -0.00101502       0.00202218       0.00049305
C        8.52160000       7.37992000      13.87501631      -0.00061455       0.00091769       0.00031605
C        6.39120000      11.06988000      13.87502851       0.00043158       0.00318265      -0.00062854
C       -0.00009000       2.46002000      13.87751100      -0.20327327      -0.00000053       0.02126282
C       -2.13049000       6.14998000      13.87484505       0.00930938       0.00594252       0.00155338
C       -4.26089000       9.83995000      13.87501111       0.00431316      -0.00129217       0.00049320
C       -6.39129000      13.52991000      13.87537074       0.02595950       0.00623037      -0.00867546
C        4.26071000       2.46002000      13.87320639       0.18873119      -0.00003931       0.00922704
C        2.13031000       6.14998000      13.87537145       0.02603058      -0.00666225      -0.00866906
C       -0.00009000       9.83995000      13.87501076       0.00532946      -0.00119352      -0.00044885
C       -2.13049000      13.52991000      13.87490544       0.01553981       0.00237355      -0.00063755
C        8.52151000       2.46002000      13.87502853       0.00254953       0.00004631      -0.00062860
C        6.39111000       6.14998000      13.87490536       0.01522422      -0.00269871      -0.00063914
C        4.26071000       9.83995000      13.87501111       0.00413515       0.00035165       0.00049288
C        2.13031000      13.52991000      13.87501633       0.00498666      -0.00041211       0.00031603
C       12.78231000       2.46002000      13.87491274      -0.00397133      -0.00000396      -0.00291062
C       10.65191000       6.14998000      13.87501630       0.00482232       0.00005085       0.00031604
C        8.52151000       9.83995000      13.87501074       0.00528296       0.00033846      -0.00044819
C        6.39111000      13.52991000      13.87484415       0.00911527      -0.00633708       0.00156844
C        2.13049000       1.22994000      13.87751104       0.09629136      -0.17550037       0.02124990
C        0.00009000       4.91990000      13.87320577      -0.09962961       0.16404142       0.00922948
C       -2.13031000       8.60986000      13.87502872      -0.00653659       0.00295224      -0.00062837
C       -4.26071000      12.29982000      13.87491288      -0.00318667      -0.00253494      -0.00290901
C        6.39129000       1.22994000      13.87484435      -0.00462102       0.01143793       0.00156530
C        4.26089000       4.91990000      13.87537093      -0.02396639       0.01974110      -0.00867742
C        2.13049000       8.60986000      13.87490565      -0.01525657       0.01260733      -0.00064078
C        0.00009000      12.29982000      13.87501647      -0.00769053       0.00507819       0.00031633
C       10.65208000       1.22994000      13.87501127      -0.00754202       0.00376306       0.00049348
C        8.52168000       4.91990000      13.87501091      -0.00807017       0.00480525      -0.00044901
C        6.39129000       8.60986000      13.87501129      -0.00662442       0.00474006       0.00049395
C        4.26089000      12.29982000      13.87501091      -0.00727744       0.00578921      -0.00044811
C       14.91288000       1.22994000      13.87537085      -0.01201231       0.02642769      -0.00866474
C       12.78248000       4.91990000      13.87490562      -0.00992039       0.01523332      -0.00064166
C       10.65208000       8.60986000      13.87501648      -0.00709513       0.00506557       0.00031668
C        8.52168000      12.29982000      13.87484430      -0.01445401       0.00569092       0.00156841
C       15.62290000       2.46002000      13.87320598      -0.18468365      -0.00168851       0.00918233
C       -3.55069000       6.14998000      13.87490535      -0.01182660      -0.00447730      -0.00063447
C       -5.68109000       9.83995000      13.87501074      -0.00190236      -0.00144182      -0.00044856
C        9.23170000      13.52991000      13.87537081      -0.02212792       0.00457888      -0.00867369
C        2.84050000       2.46002000      13.87752041       0.20720826      -0.00166506       0.02120209
C        0.71010000       6.14998000      13.87537041      -0.02195386      -0.00833585      -0.00866321
C       -1.42030000       9.83995000      13.87501110      -0.00005693      -0.00130670       0.00049310
C       -3.55069000      13.52991000      13.87484446      -0.00562268      -0.00802372       0.00156785
C        7.10130000       2.46002000      13.87491270       0.00797818      -0.00162866      -0.00290905
C        4.97090000       6.14998000      13.87484440      -0.00503556       0.00435335       0.00156646
C        2.84050000       9.83995000      13.87501073      -0.00125448      -0.00285848      -0.00044899
C        0.71010000      13.52991000      13.87501631      -0.00088515      -0.00205760       0.00031599
C       11.36210000       2.46002000      13.87502852       0.00140016      -0.00170621      -0.00062853
C        9.23170000       6.14998000      13.87501629      -0.00093519      -0.00165401       0.00031579
C        7.10130000       9.83995000      13.87501110      -0.00005066      -0.00289544       0.00049297
C        4.97090000      13.52991000      13.87490549      -0.01124458       0.00072737      -0.00063979
C        0.71002000       1.23009000      13.87751609      -0.09647456      -0.18330671       0.02116288
C       -1.42038000       4.92005000      13.87536941       0.02375522       0.01164160      -0.00867119
C       -3.55078000       8.61001000      13.87501129       0.00632801      -0.00340397       0.00049421
C       -5.68118000      12.29997000      13.87484457       0.01470909      -0.00235547       0.00156932
C        4.97082000       1.23009000      13.87537093       0.01212501       0.01841585      -0.00866651
C        2.84042000       4.92005000      13.87320528       0.09921931       0.15605524       0.00921556
C        0.71002000       8.61001000      13.87490557       0.01491609       0.00450935      -0.00063738
C       -1.42038000      12.29997000      13.87501090       0.00697780      -0.00236183      -0.00044829
C        9.23162000       1.23009000      13.87501126       0.00751804      -0.00436116       0.00049324
C        7.10122000       4.92005000      13.87490555       0.00998325       0.00704703      -0.00063864
C        4.97082000       8.61001000      13.87502870       0.00618079      -0.00514536      -0.00062817
C        2.84042000      12.29997000      13.87501648       0.00733418      -0.00304462       0.00031657
C       13.49242000       1.23009000      13.87484448       0.00409466       0.00335048       0.00156937
C       11.36202000       4.92005000      13.87501091       0.00811418      -0.00327586      -0.00044901
C        9.23162000       8.61001000      13.87501648       0.00722654      -0.00309372       0.00031656
C        7.10122000      12.29997000      13.87491293       0.00273306      -0.01071805      -0.00291192
C        2.84059000       0.00000000      13.87320420       0.08885620      -0.15978847       0.00917764
C        0.71019000       3.68996000      13.87752134      -0.10713146       0.17937464       0.02120021
C       -1.42021000       7.37992000      13.87491260      -0.00746615       0.00689008      -0.00290395
C       -3.55061000      11.06988000      13.87502852      -0.00419645       0.00149059      -0.00062869
C        7.10139000       0.00000000      13.87490550      -0.00016736      -0.01103014      -0.00064126