193
Lattice="17.043199539 0.0 0.0 -8.52159977 14.759843763 0.0 0.0 0.0 24.0" Properties=species:S:1:pos:R:3:forces:R:3 energy=-1784.7615566065956 stress="-0.06547992558456775 6.7204366684747794e-06 1.0297715417354766e-08 6.7204366684747794e-06 -0.06548770356442975 -3.8119308174368374e-08 1.0297715417354766e-08 -3.8119308174368374e-08 -0.0033200078239753543" free_energy=-1784.7615566065956 pbc="T T T"
C        0.00000000       0.00000000      13.67500000      -0.15866922      -0.27250120       0.18870924
C       -2.13040000       3.68996000      13.67500000       0.02006428       0.00139990       0.03274393
C       12.78240000       7.37992000      13.67500000      -0.00080186       0.00159319       0.03754204
C       -6.39120000      11.06988000      13.67500000      -0.01497196      -0.00882407       0.03653608
C        4.26080000       0.00000000      13.67500000      -0.01063696       0.01910705       0.03274083
C        2.13040000       3.68996000      13.67500000       0.03549730       0.06351869       0.06125667
C       -0.00000000       7.37992000      13.67500000      -0.00010016       0.00177795       0.03641274
C       -2.13040000      11.06988000      13.67500000      -0.00005742       0.00330170       0.03729844
C        8.52160000       0.00000000      13.67500000      -0.00009477       0.00113148       0.03754041
C        6.39120000       3.68996000      13.67500000      -0.00029581       0.00178732       0.03641207
C        4.26080000       7.37992000      13.67500000       0.00127917       0.00431975       0.03733394
C        2.13040000      11.06988000      13.67500000       0.00026226       0.00185838       0.03749698
C       12.78240000       0.00000000      13.67500000      -0.00223025      -0.01637169       0.03653836
C       10.65200000       3.68996000      13.67500000       0.00077068       0.00256618       0.03729865
C        8.52160000       7.37992000      13.67500000      -0.00055569       0.00211519       0.03749723
C        6.39120000      11.06988000      13.67500000       0.01033829       0.02035304       0.03711084
C       -0.00009000       2.46002000      13.67500000      -0.15490457       0.27477432       0.18876308
C       -2.13049000       6.14998000      13.67500000       0.01447730      -0.01822947       0.03710800
C       -4.26089000       9.83995000      13.67500000       0.00529033      -0.00280478       0.03732673
C       -6.39129000      13.52991000      13.67500000       0.03923818      -0.06189763       0.06127067
C        4.26071000       2.46002000      13.67500000      -0.00681590      -0.01712291       0.03272906
C        2.13031000       6.14998000      13.67500000      -0.01117794       0.01096941       0.03653364
C       -0.00009000       9.83995000      13.67500000       0.00329886      -0.00061247       0.03749081
C       -2.13049000      13.52991000      13.67500000       0.00386228      -0.00023288       0.03640332
C        8.52151000       2.46002000      13.67500000       0.00384109       0.00095230       0.03753367
C        6.39111000       6.14998000      13.67500000       0.00380262      -0.00103888       0.03729208
C        4.26071000       9.83995000      13.67500000       0.00295311      -0.00007206       0.03753481
C        2.13031000      13.52991000      13.67500000       0.00474957      -0.00097912       0.03729203
C       12.78231000       2.46002000      13.67500000       0.00168220       0.01843913       0.03653280
C       10.65191000       6.14998000      13.67500000       0.00405679       0.00034057       0.03749080
C        8.52151000       9.83995000      13.67500000       0.00370461      -0.00016999       0.03640339
C        6.39111000      13.52991000      13.67500000       0.02393349       0.00025248       0.03272129
C        2.13049000       1.22994000      13.67500000       0.30919669       0.00387151       0.18859146
C        0.00009000       4.91990000      13.67500000      -0.01672929      -0.01392379       0.03275209
C       -2.13031000       8.60986000      13.67500000      -0.00642198       0.00452440       0.03755613
C       -4.26071000      12.29982000      13.67500000       0.00993841       0.01158812       0.03655102
C        6.39129000       1.22994000      13.67500000      -0.02822790       0.00383661       0.03712500
C        4.26089000       4.91990000      13.67500000       0.00977685      -0.00363582       0.03655261
C        2.13049000       8.60986000      13.67500000      -0.00813687       0.00355242       0.03731360
C        0.00009000      12.29982000      13.67500000      -0.00708236       0.00456630       0.03751188
C       10.65208000       1.22994000      13.67500000      -0.00935962       0.00385688       0.03734782
C        8.52168000       4.91990000      13.67500000      -0.00657168       0.00334232       0.03751121
C        6.39129000       8.60986000      13.67500000      -0.00641834       0.00351046       0.03755560
C        4.26089000      12.29982000      13.67500000      -0.00694593       0.00417322       0.03642566
C       14.91288000       1.22994000      13.67500000      -0.07770666       0.00381844       0.06127805
C       12.78248000       4.91990000      13.67500000      -0.00635235       0.00381656       0.03642651
C       10.65208000       8.60986000      13.67500000      -0.00748321       0.00458415       0.03731392
C        8.52168000      12.29982000      13.67500000      -0.01612409       0.02182952       0.03274256
C       15.62290000       2.46002000      13.67500000      -0.15464732       0.02131699       0.04863606
C       -3.55069000       6.14998000      13.67500000      -0.00758264      -0.00240575       0.03193435
C       -5.68109000       9.83995000      13.67500000      -0.00340636      -0.00081866       0.03241122
C        9.23170000      13.52991000      13.67500000       0.05752422      -0.14776741       0.04860394
C        2.84050000       2.46002000      13.67500000       0.09770675       0.12082274       0.04862899
C        0.71010000       6.14998000      13.67500000       0.01808912       0.01422696       0.02874994
C       -1.42030000       9.83995000      13.67500000       0.00077137      -0.00278332       0.03258302
C       -3.55069000      13.52991000      13.67500000       0.00458233      -0.02545455       0.02875916
C        7.10130000       2.46002000      13.67500000       0.00335962       0.00488286       0.03193367
C        4.97090000       6.14998000      13.67500000       0.00057985      -0.00504351       0.03241000
C        2.84050000       9.83995000      13.67500000       0.00057289      -0.00144618       0.03258286
C        0.71010000      13.52991000      13.67500000      -0.00053263      -0.00217752       0.03258202
C       11.36210000       2.46002000      13.67500000       0.00292870       0.00015733       0.03240847
C        9.23170000       6.14998000      13.67500000       0.00019072      -0.00175343       0.03262077
C        7.10130000       9.83995000      13.67500000       0.00443998      -0.00809668       0.03193477
C        4.97090000      13.52991000      13.67500000      -0.02244476       0.00538615       0.02875419
C        0.71002000       1.23009000      13.67500000       0.00749259      -0.00446838       3.83165083
C       -1.42038000       4.92005000      13.67500000      -0.00554596       0.01731429       0.02913691
C       -3.55078000       8.61001000      13.67500000       0.00674299      -0.00384720       0.03261420
C       -5.68118000      12.29997000      13.67500000       0.00018138       0.00763252       0.02227513
C        4.97082000       1.23009000      13.67500000       0.03179915      -0.00425890       0.02914718
C        2.84042000       4.92005000      13.67500000       0.00017002      -0.01591699       0.02227197
C        0.71002000       8.61001000      13.67500000       0.00715782      -0.00489396       0.03230216
C       -1.42038000      12.29997000      13.67500000       0.00606315      -0.00395038       0.03230263
C        9.23162000       1.23009000      13.67500000       0.00702286      -0.00427943       0.03261421
C        7.10122000       4.92005000      13.67500000       0.00582723      -0.00442961       0.03230239
C        4.97082000       8.61001000      13.67500000       0.00668638      -0.00438309       0.03261378
C        2.84042000      12.29997000      13.67500000       0.00739958      -0.00339905       0.03230239
C       13.49242000       1.23009000      13.67500000       0.02008642      -0.00427852       0.02226867
C       11.36202000       4.92005000      13.67500000       0.00729372      -0.00492056       0.03230228
C        9.23162000       8.61001000      13.67500000       0.00697948      -0.00326832       0.03230243
C        7.10122000      12.29997000      13.67500000      -0.00587747      -0.02565437       0.02914681
C        2.84059000       0.00000000      13.67500000       0.09391629      -0.12228071       0.04857968
C        0.71019000       3.68996000      13.67500000       0.05371210       0.14577671       0.04863525
C       -1.42021000       7.37992000      13.67500000       0.00048966       0.00621962       0.03193390
C       -3.55061000      11.06988000      13.67500000      -0.00333497       0.00382130       0.03241144
C        7.10139000       0.00000000      13.67500000      -0.00050823      -0.00622392       0.03193450
C        4.97099000       3.68996000      13.67500000       0.00123744       0.02358709       0.02875222
C        2.84059000       7.37992000      13.67500000      -0.00673646      -0.00119580       0.03240918
C        0.71019000      11.06988000      13.67500000      -0.00363061       0.00042325       0.03262051
C       11.36219000       0.00000000      13.67500000      -0.00098650      -0.00154130       0.03240923
C        9.23179000       3.68996000      13.67500000      -0.00454915       0.00036003       0.03258204
C        7.10139000       7.37992000      13.67500000      -0.00320173       0.00082609       0.03258235
C        4.97099000      11.06988000      13.67500000      -0.01084854       0.00104054       0.03193444
C       15.62299000       0.00000000      13.67500000      -0.15853699      -0.02269309       0.04865330
C       13.49259000       3.68996000      13.67500000      -0.02651356      -0.00719711       0.02874780
C       11.36219000       7.37992000      13.67500000      -0.00350653      -0.00046532       0.03258276
C        9.23179000      11.06988000      13.67500000       0.01408454      -0.01546975       0.02876354
C        0.00000000       0.00000000      10.32500000      -0.15345374      -0.26553794      -0.22547923
C       -2.13040000       3.68996000      10.32500000       0.02138790       0.01863340      -0.04099115
C       12.78240000       7.37992000      10.32500000      -0.00083957       0.00073149      -0.03741729
C       -6.39120000      11.06988000      10.32500000       0.00556017       0.00810635      -0.03554745
C        4.26080000       0.00000000      10.32500000       0.00538376       0.02812768      -0.04099049
C        2.13040000       3.68996000      10.32500000       0.09893016       0.17119484      -0.00782402
C       -0.00000000       7.37992000      10.32500000       0.00982480       0.00813449      -0.03592403
C       -2.13040000      11.06988000      10.32500000       0.00027442       0.00215016      -0.03743665
C        8.52160000       0.00000000      10.32500000       0.00089525      -0.00007090      -0.03741614
C        6.39120000       3.68996000      10.32500000       0.00197618       0.01243911      -0.03592472
C        4.26080000       7.37992000      10.32500000      -0.00109508      -0.00163553      -0.03767274
C        2.13040000      11.06988000      10.32500000       0.00069822       0.00148474      -0.03747803
C       12.78240000       0.00000000      10.32500000       0.00389629       0.00887838      -0.03554706
C       10.65200000       3.68996000      10.32500000       0.00140123       0.00109893      -0.03743786
C        8.52160000       7.37992000      10.32500000       0.00066262       0.00110161      -0.03747917
C        6.39120000      11.06988000      10.32500000      -0.00343657      -0.00552245      -0.03572654
C       -0.00009000       2.46002000      10.32500000      -0.14751932       0.26268470      -0.22553234
C       -2.13049000       6.14998000      10.32500000       0.00231406       0.00279143      -0.03574957
C       -4.26089000       9.83995000      10.32500000       0.00465790      -0.00172380      -0.03769444
C       -6.39129000      13.52991000      10.32500000       0.10448693      -0.17448778      -0.00785677
C        4.26071000       2.46002000      10.32500000       0.01074276      -0.03083289      -0.04100383
C        2.13031000       6.14998000      10.32500000       0.01108259      -0.01069735      -0.03556376
C       -0.00009000       9.83995000      10.32500000       0.00657378      -0.00439958      -0.03750046
C       -2.13049000      13.52991000      10.32500000       0.00781205      -0.01568503      -0.03594558
C        8.52151000       2.46002000      10.32500000       0.00631023      -0.00264760      -0.03743696
C        6.39111000       6.14998000      10.32500000       0.00554655      -0.00477416      -0.03745841
C        4.26071000       9.83995000      10.32500000       0.00477078      -0.00402681      -0.03743820
C        2.13031000      13.52991000      10.32500000       0.00707716      -0.00430851      -0.03745798
C       12.78231000       2.46002000      10.32500000       0.00939169      -0.01166266      -0.03556621
C       10.65191000       6.14998000      10.32500000       0.00592928      -0.00415777      -0.03750009
C        8.52151000       9.83995000      10.32500000       0.01516365      -0.01141692      -0.03594417
C        6.39111000      13.52991000      10.32500000       0.02683726      -0.02184852      -0.04100537
C        2.13049000       1.22994000      10.32500000       0.30093193       0.00297062      -0.22540070
C        0.00009000       4.91990000      10.32500000      -0.03222558      -0.00649966      -0.04099878
C       -2.13031000       8.60986000      10.32500000      -0.00570335       0.00395056      -0.03743191
C       -4.26071000      12.29982000      10.32500000      -0.01505794       0.00220223      -0.03556325
C        6.39129000       1.22994000      10.32500000       0.00092889       0.00291885      -0.03574108
C        4.26089000       4.91990000      10.32500000      -0.01533108       0.00377638      -0.03555825
C        2.13049000       8.60986000      10.32500000      -0.00742822       0.00218365      -0.03745184
C        0.00009000      12.29982000      10.32500000      -0.00679952       0.00291054      -0.03749380
C       10.65208000       1.22994000      10.32500000      -0.00321072       0.00289607      -0.03768605
C        8.52168000       4.91990000      10.32500000      -0.00651755       0.00305096      -0.03749255
C        6.39129000       8.60986000      10.32500000      -0.00603062       0.00219184      -0.03743113
C        4.26089000      12.29982000      10.32500000      -0.01764154       0.00752376      -0.03593812
C       14.91288000       1.22994000      10.32500000      -0.20293451       0.00287526      -0.00785311
C       12.78248000       4.91990000      10.32500000      -0.01703920      -0.00149348      -0.03593821
C       10.65208000       8.60986000      10.32500000      -0.00696977       0.00392298      -0.03745251
C        8.52168000      12.29982000      10.32500000      -0.03184537       0.01243965      -0.04100123
C       16.33309000       1.22994000      10.32500000      -0.30018146       0.00299682      -0.21244184
C       14.20269000       4.91990000      10.32500000       0.00905973       0.00355793      -0.03094789
C       12.07229000       8.60986000      10.32500000      -0.00027830       0.00216719      -0.03253943
C       -7.10130000      12.29982000      10.32500000       0.02594093       0.01255362      -0.03735974
C        3.55069000       1.22994000      10.32500000       0.19761382       0.00278258      -0.00536968
C        1.42030000       4.91990000      10.32500000       0.02608714      -0.00668438      -0.03735984
C       -0.71010000       8.60986000      10.32500000       0.00089438       0.00221005      -0.03248158
C       -2.84050000      12.29982000      10.32500000       0.01098026       0.00745581      -0.03127554
C        7.81149000       1.22994000      10.32500000      -0.00243046       0.00288250      -0.03277177
C        5.68109000       4.91990000      10.32500000       0.01143893      -0.00151703      -0.03127630
C        3.55069000       8.60986000      10.32500000      -0.00004603       0.00389945      -0.03253894
C        1.42030000      12.29982000      10.32500000       0.00046374       0.00291144      -0.03257625
C       12.07229000       1.22994000      10.32500000      -0.00711493       0.00288043      -0.03089700
C        9.94189000       4.91990000      10.32500000       0.00073795       0.00300511      -0.03257690
C        7.81149000       8.60986000      10.32500000       0.00141213       0.00387498      -0.03248147
C        5.68109000      12.29982000      10.32500000       0.00934187       0.00241435      -0.03095038
C        1.42021000       0.00000000      10.32500000       0.15279638      -0.25821283      -0.21234012
C       -0.71019000       3.68996000      10.32500000      -0.09609842       0.17253544      -0.00535019
C       -2.84059000       7.37992000      10.32500000       0.00403908      -0.00069732      -0.03275323
C       -4.97099000      11.06988000      10.32500000       0.00625189      -0.00441468      -0.03087914
C        5.68101000       0.00000000      10.32500000      -0.00128120       0.00980678      -0.03093086
C        3.55061000       3.68996000      10.32500000      -0.01872777       0.01964693      -0.03734101
C        1.42021000       7.37992000      10.32500000      -0.00671879       0.00908422      -0.03125750
C       -0.71019000      11.06988000      10.32500000       0.00246579       0.00247019      -0.03255857
C        9.94181000       0.00000000      10.32500000       0.00189585       0.00084995      -0.03252059
C        7.81141000       3.68996000      10.32500000       0.00121692       0.00200003      -0.03246251
C        5.68101000       7.37992000      10.32500000       0.00358603       0.00169515      -0.03252024
C        3.55061000      11.06988000      10.32500000       0.00282907       0.00313802      -0.03246393
C       14.20261000       0.00000000      10.32500000      -0.00251062       0.02915608      -0.03734263
C       12.07221000       3.68996000      10.32500000       0.00069110       0.01336939      -0.03125646
C        9.94181000       7.37992000      10.32500000       0.00200847       0.00206442      -0.03255799
C        7.81141000      11.06988000      10.32500000      -0.00262384       0.00921246      -0.03093409
C        1.42030000       2.46002000      10.32500000       0.14700174       0.25536233      -0.21237706
C       -0.71010000       6.14998000      10.32500000      -0.00807713      -0.01187128      -0.03094791
C       -2.84050000       9.83995000      10.32500000      -0.00198266      -0.00501605      -0.03253929
C       -4.97090000      13.52991000      10.32500000      -0.02419895      -0.02286950      -0.03735238
C        5.68109000       2.46002000      10.32500000      -0.00631273      -0.01253010      -0.03094746
C        3.55069000       6.14998000      10.32500000       0.00118213       0.00183406      -0.03089769
C        1.42030000       9.83995000      10.32500000      -0.00346163      -0.00535430      -0.03257683
C       -0.71010000      13.52991000      10.32500000      -0.00412787      -0.00529274      -0.03248094
C        9.94189000       2.46002000      10.32500000      -0.00313153      -0.00355252      -0.03253843
C        7.81149000       6.14998000      10.32500000      -0.00277944      -0.00500509      -0.03257674
C        5.68109000       9.83995000      10.32500000      -0.00111327      -0.00254647      -0.03277159
C        3.55069000      13.52991000      10.32500000      -0.00415227      -0.01660714      -0.03127422
C       14.20269000       2.46002000      10.32500000      -0.00750807      -0.03190666      -0.03735306
C       12.07229000       6.14998000      10.32500000      -0.00236754      -0.00569703      -0.03248182
C        9.94189000       9.83995000      10.32500000      -0.01196388      -0.01228019      -0.03127493
C        7.81149000      13.52991000      10.32500000      -0.10123910      -0.17579722      -0.00538286
Li       0.71002000       1.23009000      12.00000000       0.00028373       0.00004963      -3.37360322
193
Lattice="17.043199539 0.0 0.0 -8.52159977 14.759843763 0.0 0.0 0.0 24.0" Properties=species:S:1:pos:R:3:forces:R:3 energy=-1785.1679851197744 stress="-0.06550250172472152 6.6749853321828534e-06 -1.7056491625918865e-07 6.6749853321828534e-06 -0.06551014765549527 5.751143960744058e-08 -1.7056491625918865e-07 5.751143960744058e-08 -0.0026966463059331417" free_energy=-1785.1679851197744 pbc="T T T"
C        0.00000000       0.00000000      13.68111326      -0.11790547      -0.20197966       0.74808550
C       -2.13040000       3.68996000      13.67606074       0.01766543       0.00910258      -0.01938557
C       12.78240000       7.37992000      13.67621618      -0.00082697       0.00168773       0.03486903
C       -6.39120000      11.06988000      13.67618359      -0.01059478      -0.01149228       0.02836643
C        4.26080000       0.00000000      13.67606064      -0.00277156       0.02088986      -0.01937691
C        2.13040000       3.68996000      13.67698442       0.03170030       0.05693877       0.09606787
C        0.00000000       7.37992000      13.67617959      -0.00161523       0.00232503       0.03209237
C       -2.13040000      11.06988000      13.67620829       0.00003610       0.00296825       0.03477365
C        8.52160000       0.00000000      13.67621613      -0.00000033       0.00115696       0.03486784
C        6.39120000       3.68996000      13.67617957       0.00093208       0.00074787       0.03209288
C        4.26080000       7.37992000      13.67620944       0.00112219       0.00404837       0.03472260
C        2.13040000      11.06988000      13.67621472       0.00027490       0.00185771       0.03484017
C       12.78240000       0.00000000      13.67618366      -0.00672617      -0.01391055       0.02836327
C       10.65200000       3.68996000      13.67620829       0.00043476       0.00248008       0.03477302
C        8.52160000       7.37992000      13.67621473      -0.00056248       0.00212574       0.03484018
C        6.39120000      11.06988000      13.67620221       0.00792768       0.01617703       0.03332192
C       -0.00009000       2.46002000      13.68111500      -0.11412067       0.20393995       0.74785314
C       -2.13049000       6.14998000      13.67620212       0.01206485      -0.01405288       0.03331775
C       -4.26089000       9.83995000      13.67620920       0.00513392      -0.00253412       0.03471885
C       -6.39129000      13.52991000      13.67698487       0.03545576      -0.05532074       0.09604215
C        4.26071000       2.46002000      13.67606026       0.00103967      -0.01891612      -0.01938861
C        2.13031000       6.14998000      13.67618351      -0.00679730       0.01363445       0.02836123
C       -0.00009000       9.83995000      13.67621452       0.00329232      -0.00062311       0.03483641
C       -2.13049000      13.52991000      13.67617929       0.00508876       0.00080666       0.03208940
C        8.52151000       2.46002000      13.67621591       0.00393583       0.00092654       0.03486364
C        6.39111000       6.14998000      13.67620808       0.00389625      -0.00070521       0.03476928
C        4.26071000       9.83995000      13.67621594       0.00292832      -0.00016670       0.03486440
C        2.13031000      13.52991000      13.67620808       0.00441443      -0.00089289       0.03476908
C       12.78231000       2.46002000      13.67618348      -0.00281513       0.01597654       0.02835840
C       10.65191000       6.14998000      13.67621452       0.00406971       0.00034093       0.03483643
C        8.52151000       9.83995000      13.67617929       0.00219060      -0.00071622       0.03209069
C        6.39111000      13.52991000      13.67606001       0.02152671      -0.00745659      -0.01938543
C        2.13049000       1.22994000      13.68110944       0.22827188       0.00374626       0.74841363
C        0.00009000       4.91990000      13.67606101      -0.02220562      -0.00799651      -0.01937574
C       -2.13031000       8.60986000      13.67621664      -0.00649160       0.00459359       0.03487736
C       -4.26071000      12.29982000      13.67618407       0.01006954       0.00646307       0.02837270
C        6.39129000       1.22994000      13.67620267      -0.02340442       0.00383566       0.03333029
C        4.26089000       4.91990000      13.67618413       0.00990387       0.00148866       0.02837162
C        2.13049000       8.60986000      13.67620878      -0.00789422       0.00380054       0.03478200
C        0.00009000      12.29982000      13.67621520      -0.00708865       0.00457764       0.03484882
C       10.65208000       1.22994000      13.67620989      -0.00904600       0.00385700       0.03473059
C        8.52168000       4.91990000      13.67621518      -0.00657787       0.00333127       0.03484854
C        6.39129000       8.60986000      13.67621662      -0.00648783       0.00344167       0.03487669
C        4.26089000      12.29982000      13.67618001      -0.00666221       0.00258778       0.03210135
C       14.91288000       1.22994000      13.67698511      -0.07011751       0.00382827       0.09611821
C       12.78248000       4.91990000      13.67618004      -0.00606812       0.00540229       0.03209966
C       10.65208000       8.60986000      13.67620879      -0.00724108       0.00433691       0.03478266
C        8.52168000      12.29982000      13.67606070      -0.02159845       0.01588148      -0.01936505
C       15.62290000       2.46002000      13.67657557      -0.15008427       0.02835080       0.01527041
C       -3.55069000       6.14998000      13.67603452      -0.00695090      -0.00298104       0.03435370
C       -5.68109000       9.83995000      13.67604997      -0.00327295      -0.00014319       0.03452152
C        9.23170000      13.52991000      13.67657453       0.04913243      -0.14725853       0.01527449
C        2.84050000       2.46002000      13.67657534       0.10147240       0.11337296       0.01526550
C        0.71010000       6.14998000      13.67593136       0.01620572       0.01004018       0.03241381
C       -1.42030000       9.83995000      13.67605553       0.00073930      -0.00279160       0.03472681
C       -3.55069000      13.52991000      13.67593166       0.00189585      -0.02173153       0.03241693
C        7.10130000       2.46002000      13.67603450       0.00254509       0.00462475       0.03435218
C        4.97090000       6.14998000      13.67604993      -0.00007037      -0.00526542       0.03452154
C        2.84050000       9.83995000      13.67605553       0.00059713      -0.00146909       0.03472669
C        0.71010000      13.52991000      13.67605550      -0.00052398      -0.00214441       0.03472608
C       11.36210000       2.46002000      13.67604988       0.00344586      -0.00029539       0.03452099
C        9.23170000       6.14998000      13.67605675       0.00019099      -0.00175287       0.03480809
C        7.10130000       9.83995000      13.67603453       0.00462318      -0.00726060       0.03435241
C        4.97090000      13.52991000      13.67593150      -0.01786955       0.00584808       0.03241324
C        0.71002000       1.23009000      13.79912677       0.00707808      -0.00429502      -0.18998116
C       -1.42038000       4.92005000      13.67594389      -0.00560464       0.01741571       0.03956972
C       -3.55078000       8.61001000      13.67605654       0.00674194      -0.00384686       0.03478715
C       -5.68118000      12.29997000      13.67572161       0.00428699       0.00051422       0.03581214
C        4.97082000       1.23009000      13.67594423       0.03192813      -0.00425262       0.03956264
C        2.84042000       4.92005000      13.67572150       0.00427487      -0.00878679       0.03580302
C        0.71002000       8.61001000      13.67604643       0.00676100      -0.00527837       0.03449583
C       -1.42038000      12.29997000      13.67604645       0.00592713      -0.00341631       0.03449544
C        9.23162000       1.23009000      13.67605654       0.00702262      -0.00427952       0.03478659
C        7.10122000       4.92005000      13.67604644       0.00569165      -0.00496428       0.03449573
C        4.97082000       8.61001000      13.67605653       0.00668538      -0.00438353       0.03478683
C        2.84042000      12.29997000      13.67604644       0.00792964      -0.00354972       0.03449560
C       13.49242000       1.23009000      13.67572140       0.01184065      -0.00427145       0.03579790
C       11.36202000       4.92005000      13.67604644       0.00782390      -0.00476997       0.03449552
C        9.23162000       8.61001000      13.67604644       0.00658336      -0.00288400       0.03449548
C        7.10122000      12.29997000      13.67594421      -0.00594431      -0.02575741       0.03956390
C        2.84059000       0.00000000      13.67657374       0.09761884      -0.11472925       0.01527781
C        0.71019000       3.68996000      13.67657554       0.04539797       0.14540899       0.01527891
C       -1.42021000       7.37992000      13.67603450       0.00067433       0.00538444       0.03435339
C       -3.55061000      11.06988000      13.67604997      -0.00398538       0.00404314       0.03452128
C        7.10139000       0.00000000      13.67603452      -0.00132159      -0.00596466       0.03435226