197
Lattice="17.219999313 0.0 0.0 -8.609999657 14.912956858 0.0 0.0 0.0 24.0" Properties=species:S:1:pos:R:3:forces:R:3 energy=-1822.9796945321043 stress="-0.0673834136701785 3.2043646233327665e-06 7.909648641560196e-19 3.2043646233327665e-06 -0.06737986066140562 1.734932868782859e-18 7.909648641560196e-19 1.734932868782859e-18 -5.0531879958960334e-05" free_energy=-1822.9796945321043 pbc="T T T"
C        0.00000000       0.00000000      13.87500000      -0.17941128      -0.10369392       0.03527542
C       -1.23002000       2.13047000      13.87500000      -0.15973399       0.09106218      -0.02514056
C       14.76004000       4.26078000      13.87500000      -0.00886671      -0.00099056      -0.00217645
C       13.53001000       6.39125000      13.87500000       0.00208666      -0.00017484       0.00015789
C       -4.92001000       8.52171000      13.87500000       0.00097899       0.00187203       0.00015839
C       11.06996000      10.65218000      13.87500000      -0.00708804      -0.00718314      -0.00217144
C        9.84002000      12.78249000      13.87500000       0.00039934      -0.18295302      -0.02514328
C        2.46005000       0.00000000      13.87500000       0.17827806      -0.10450338       0.03521020
C        1.23002000       2.13047000      13.87500000      -0.00070389       0.20533774       0.03517826
C        0.00009000       4.26078000      13.87500000       0.01864417       0.00893403       0.00518729
C       -1.22994000       6.39125000      13.87500000      -0.01203260       0.00228887      -0.00132286
C       -2.45996000       8.52171000      13.87500000      -0.00234567      -0.00096266       0.00021050
C       -3.68999000      10.65218000      13.87500000      -0.00324805      -0.01701569      -0.00132529
C       -4.91993000      12.78249000      13.87500000       0.01513096       0.01797848       0.00517755
C        4.91993000       0.00000000      13.87500000      -0.00315300      -0.02050730       0.00520908
C        3.68990000       2.13047000      13.87500000       0.16392735       0.09293935      -0.02511237
C        2.45996000       4.26078000      13.87500000      -0.02174993       0.01153977       0.00519778
C        1.22994000       6.39125000      13.87500000       0.00419227       0.00943833      -0.00121518
C       -0.00009000       8.52171000      13.87500000       0.00435888       0.00331260       0.00016367
C       -1.23011000      10.65218000      13.87500000       0.00515642      -0.00322790       0.00016062
C       -2.46005000      12.78249000      13.87500000       0.01102124      -0.00042203      -0.00122432
C        7.37998000       0.00000000      13.87500000       0.00821044       0.00780513      -0.00131322
C        6.14995000       2.13047000      13.87500000      -0.00157791       0.00642882      -0.00216875
C        4.92001000       4.26078000      13.87500000       0.00275949      -0.00121187      -0.00217593
C        3.68999000       6.39125000      13.87500000       0.01111449       0.00283212      -0.00131340
C        2.45996000       8.52171000      13.87500000       0.00023247       0.00107710       0.00016755
C        1.22994000      10.65218000      13.87500000      -0.00005976      -0.00503485       0.00025515
C        0.00000000      12.78249000      13.87500000       0.00075961       0.00085242       0.00015781
C        9.84002000       0.00000000      13.87500000       0.00041718       0.00125078       0.00021834
C        8.61000000       2.13047000      13.87500000      -0.00047422      -0.00268577       0.00015606
C        7.38006000       4.26078000      13.87500000      -0.00384536       0.00382853       0.00039795
C        6.15004000       6.39125000      13.87500000      -0.00160192      -0.00022329       0.00015752
C        4.92001000       8.52171000      13.87500000       0.00167333      -0.00032736       0.00021894
C        3.68999000      10.65218000      13.87500000      -0.00043771      -0.00537455       0.00016331
C        2.46005000      12.78249000      13.87500000      -0.00072097       0.00101875       0.00015711
C       12.30007000       0.00000000      13.87500000      -0.01350709       0.00852408      -0.00132254
C       11.07005000       2.13047000      13.87500000      -0.00444452      -0.00224169       0.00014750
C        9.84011000       4.26078000      13.87500000      -0.00818760       0.00472945       0.00023599
C        8.61009000       6.39125000      13.87500000      -0.00550508       0.00031974       0.00024551
C        7.38006000       8.52171000      13.87500000      -0.00599005       0.00237547       0.00014925
C        6.15004000      10.65218000      13.87500000      -0.00234415      -0.01577075      -0.00132570
C        4.92010000      12.78249000      13.87500000      -0.01184534      -0.00188203      -0.00123003
C       14.75995000       0.00000000      13.87500000       0.00817024      -0.02209905       0.00519928
C       13.52993000       2.13047000      13.87500000       0.00257716       0.00705736      -0.00217339
C       12.29999000       4.26078000      13.87500000      -0.00109323       0.00426735       0.00039678
C       11.06996000       6.39125000      13.87500000       0.00146721       0.00018263       0.00025276
C        9.83994000       8.52171000      13.87500000       0.00085002       0.00197920       0.00040714
C        8.60991000      10.65218000      13.87500000       0.00917439      -0.00687397      -0.00217400
C        7.37998000      12.78249000      13.87500000      -0.01505813       0.01915612       0.00518820
C       -0.00000000       1.42031000      13.87500000      -0.17951468       0.10406966       0.03526757
C       -1.23002000       3.55078000      13.87500000      -0.01274535      -0.02149014       0.00518634
C       -2.45996000       5.68109000      13.87500000       0.00262876       0.01289302      -0.00131650
C       -3.68999000       7.81156000      13.87500000       0.00152310       0.00084301       0.00021912
C       -4.92001000       9.94202000      13.87500000       0.01119144      -0.00423044      -0.00132315
C       -6.14995000      12.07234000      13.87500000      -0.02321958      -0.00043121       0.00519537
C       -7.37998000      14.20280000      13.87500000       0.00028008      -0.20727791       0.03526095
C        2.46005000       1.42031000      13.87500000       0.17540110       0.10205792       0.03526789
C        1.23002000       3.55078000      13.87500000      -0.00083840       0.17784184      -0.02514095
C        0.00009000       5.68109000      13.87500000       0.00320965       0.00166726      -0.00217931
C       -1.22994000       7.81156000      13.87500000      -0.00506838      -0.00361583       0.00015452
C       -2.45996000       9.94202000      13.87500000      -0.00615952      -0.00321490       0.00014633
C       -3.68990000      12.07234000      13.87500000       0.00133045       0.00788362      -0.00217551
C       -4.91993000      14.20280000      13.87500000       0.15574654      -0.09434958      -0.02514235
C        4.91993000       1.42031000      13.87500000      -0.00632342       0.02335534       0.00518247
C        3.68990000       3.55078000      13.87500000       0.01987616      -0.02097694       0.00517572
C        2.45996000       5.68109000      13.87500000      -0.00652980       0.00432271      -0.00218649
C        1.22994000       7.81156000      13.87500000       0.00080532      -0.00046014       0.00039898
C       -0.00009000       9.94202000      13.87500000       0.00098720      -0.00052300       0.00023774
C       -1.23002000      12.07234000      13.87500000      -0.00055766       0.00580108       0.00039591
C       -2.46005000      14.20280000      13.87500000      -0.00061752      -0.00729034      -0.00218331
C        7.37998000       1.42031000      13.87500000       0.00814021      -0.00788103      -0.00131552
C        6.14995000       3.55078000      13.87500000       0.00956087      -0.00065129      -0.00122239
C        4.92001000       5.68109000      13.87500000      -0.00276794       0.01266171      -0.00131754
C        3.68999000       7.81156000      13.87500000       0.00064459      -0.00154259       0.00015733
C        2.45996000       9.94202000      13.87500000       0.00016433      -0.00119660       0.00024632
C        1.23002000      12.07234000      13.87500000      -0.00013852       0.00463782       0.00025124
C        0.00000000      14.20280000      13.87500000      -0.00095420       0.00131447       0.00015821
C        9.84002000       1.42031000      13.87500000      -0.00080499      -0.00151866       0.00021681
C        8.61000000       3.55078000      13.87500000       0.00291745      -0.00444348       0.00015492
C        7.38006000       5.68109000      13.87500000      -0.00014530       0.00130999       0.00016321
C        6.15004000       7.81156000      13.87500000      -0.00239957       0.00021395       0.00021647
C        4.92001000       9.94202000      13.87500000       0.00086752      -0.00157183       0.00014779
C        3.69007000      12.07234000      13.87500000      -0.00003415       0.00464197       0.00040312
C        2.46005000      14.20280000      13.87500000      -0.00044879       0.00099773       0.00015696
C       12.29990000       1.42031000      13.87500000      -0.00336376      -0.00836078      -0.00132274
C       11.06988000       3.55078000      13.87500000       0.00734709      -0.00461320       0.00014788
C        9.83994000       5.68109000      13.87500000       0.00502996       0.00062643       0.00024659
C        8.60991000       7.81156000      13.87500000       0.00532294      -0.00149923       0.00015684
C        7.37989000       9.94202000      13.87500000      -0.00626288      -0.00498022      -0.00133251
C        6.14995000      12.07234000      13.87500000      -0.00089129       0.00937179      -0.00218242
C        4.91993000      14.20280000      13.87500000       0.00658801      -0.00853873      -0.00218020
C       14.75995000       1.42031000      13.87500000       0.00694841       0.02268042       0.00519339
C       13.52993000       3.55078000      13.87500000      -0.00377887      -0.00060337      -0.00122232
C       12.29999000       5.68109000      13.87500000      -0.00120437       0.00177002       0.00016458
C       11.06996000       7.81156000      13.87500000       0.00006275      -0.00095816       0.00016575
C        9.83994000       9.94202000      13.87500000      -0.00047600      -0.00867418      -0.00122270
C        8.61000000      12.07234000      13.87500000       0.02237027      -0.00072773       0.00519305
C        7.37998000      14.20280000      13.87500000      -0.16025287      -0.09238014      -0.02514306
C        0.00000000       0.00000000      10.12500000      -0.17941128      -0.10369392      -0.03527542
C       -1.23002000       2.13047000      10.12500000      -0.15973399       0.09106218       0.02514056
C       14.76004000       4.26078000      10.12500000      -0.00886671      -0.00099056       0.00217645
C       13.53001000       6.39125000      10.12500000       0.00208666      -0.00017484      -0.00015789
C       -4.92001000       8.52171000      10.12500000       0.00097899       0.00187203      -0.00015839
C       11.06996000      10.65218000      10.12500000      -0.00708804      -0.00718314       0.00217144
C        9.84002000      12.78249000      10.12500000       0.00039934      -0.18295302       0.02514328
C        2.46005000       0.00000000      10.12500000       0.17827806      -0.10450338      -0.03521020
C        1.23002000       2.13047000      10.12500000      -0.00070389       0.20533774      -0.03517826
C        0.00009000       4.26078000      10.12500000       0.01864417       0.00893403      -0.00518729
C       -1.22994000       6.39125000      10.12500000      -0.01203260       0.00228887       0.00132286
C       -2.45996000       8.52171000      10.12500000      -0.00234567      -0.00096266      -0.00021050
C       -3.68999000      10.65218000      10.12500000      -0.00324805      -0.01701569       0.00132529
C       -4.91993000      12.78249000      10.12500000       0.01513096       0.01797848      -0.00517755
C        4.91993000       0.00000000      10.12500000      -0.00315300      -0.02050730      -0.00520908
C        3.68990000       2.13047000      10.12500000       0.16392735       0.09293935       0.02511237
C        2.45996000       4.26078000      10.12500000      -0.02174993       0.01153977      -0.00519778
C        1.22994000       6.39125000      10.12500000       0.00419227       0.00943833       0.00121518
C       -0.00009000       8.52171000      10.12500000       0.00435888       0.00331260      -0.00016367
C       -1.23011000      10.65218000      10.12500000       0.00515642      -0.00322790      -0.00016062
C       -2.46005000      12.78249000      10.12500000       0.01102124      -0.00042203       0.00122432
C        7.37998000       0.00000000      10.12500000       0.00821044       0.00780513       0.00131322
C        6.14995000       2.13047000      10.12500000      -0.00157791       0.00642882       0.00216875
C        4.92001000       4.26078000      10.12500000       0.00275949      -0.00121187       0.00217593
C        3.68999000       6.39125000      10.12500000       0.01111449       0.00283212       0.00131340
C        2.45996000       8.52171000      10.12500000       0.00023247       0.00107710      -0.00016755
C        1.22994000      10.65218000      10.12500000      -0.00005976      -0.00503485      -0.00025515
C        0.00000000      12.78249000      10.12500000       0.00075961       0.00085242      -0.00015781
C        9.84002000       0.00000000      10.12500000       0.00041718       0.00125078      -0.00021834
C        8.61000000       2.13047000      10.12500000      -0.00047422      -0.00268577      -0.00015606
C        7.38006000       4.26078000      10.12500000      -0.00384536       0.00382853      -0.00039795
C        6.15004000       6.39125000      10.12500000      -0.00160192      -0.00022329      -0.00015752
C        4.92001000       8.52171000      10.12500000       0.00167333      -0.00032736      -0.00021894
C        3.68999000      10.65218000      10.12500000      -0.00043771      -0.00537455      -0.00016331
C        2.46005000      12.78249000      10.12500000      -0.00072097       0.00101875      -0.00015711
C       12.30007000       0.00000000      10.12500000      -0.01350709       0.00852408       0.00132254
C       11.07005000       2.13047000      10.12500000      -0.00444452      -0.00224169      -0.00014750
C        9.84011000       4.26078000      10.12500000      -0.00818760       0.00472945      -0.00023599
C        8.61009000       6.39125000      10.12500000      -0.00550508       0.00031974      -0.00024551
C        7.38006000       8.52171000      10.12500000      -0.00599005       0.00237547      -0.00014925
C        6.15004000      10.65218000      10.12500000      -0.00234415      -0.01577075       0.00132570
C        4.92010000      12.78249000      10.12500000      -0.01184534      -0.00188203       0.00123003
C       14.75995000       0.00000000      10.12500000       0.00817024      -0.02209905      -0.00519928
C       13.52993000       2.13047000      10.12500000       0.00257716       0.00705736       0.00217339
C       12.29999000       4.26078000      10.12500000      -0.00109323       0.00426735      -0.00039678
C       11.06996000       6.39125000      10.12500000       0.00146721       0.00018263      -0.00025276
C        9.83994000       8.52171000      10.12500000       0.00085002       0.00197920      -0.00040714
C        8.60991000      10.65218000      10.12500000       0.00917439      -0.00687397       0.00217400
C        7.37998000      12.78249000      10.12500000      -0.01505813       0.01915612      -0.00518820
C       -0.00000000       1.42031000      10.12500000      -0.17951468       0.10406966      -0.03526757
C       -1.23002000       3.55078000      10.12500000      -0.01274535      -0.02149014      -0.00518634
C       -2.45996000       5.68109000      10.12500000       0.00262876       0.01289302       0.00131650
C       -3.68999000       7.81156000      10.12500000       0.00152310       0.00084301      -0.00021912
C       -4.92001000       9.94202000      10.12500000       0.01119144      -0.00423044       0.00132315
C       -6.14995000      12.07234000      10.12500000      -0.02321958      -0.00043121      -0.00519537
C       -7.37998000      14.20280000      10.12500000       0.00028008      -0.20727791      -0.03526095
C        2.46005000       1.42031000      10.12500000       0.17540110       0.10205792      -0.03526789
C        1.23002000       3.55078000      10.12500000      -0.00083840       0.17784184       0.02514095
C        0.00009000       5.68109000      10.12500000       0.00320965       0.00166726       0.00217931
C       -1.22994000       7.81156000      10.12500000      -0.00506838      -0.00361583      -0.00015452
C       -2.45996000       9.94202000      10.12500000      -0.00615952      -0.00321490      -0.00014633
C       -3.68990000      12.07234000      10.12500000       0.00133045       0.00788362       0.00217551
C       -4.91993000      14.20280000      10.12500000       0.15574654      -0.09434958       0.02514235
C        4.91993000       1.42031000      10.12500000      -0.00632342       0.02335534      -0.00518247
C        3.68990000       3.55078000      10.12500000       0.01987616      -0.02097694      -0.00517572
C        2.45996000       5.68109000      10.12500000      -0.00652980       0.00432271       0.00218649
C        1.22994000       7.81156000      10.12500000       0.00080532      -0.00046014      -0.00039898
C       -0.00009000       9.94202000      10.12500000       0.00098720      -0.00052300      -0.00023774
C       -1.23002000      12.07234000      10.12500000      -0.00055766       0.00580108      -0.00039591
C       -2.46005000      14.20280000      10.12500000      -0.00061752      -0.00729034       0.00218331
C        7.37998000       1.42031000      10.12500000       0.00814021      -0.00788103       0.00131552
C        6.14995000       3.55078000      10.12500000       0.00956087      -0.00065129       0.00122239
C        4.92001000       5.68109000      10.12500000      -0.00276794       0.01266171       0.00131754
C        3.68999000       7.81156000      10.12500000       0.00064459      -0.00154259      -0.00015733
C        2.45996000       9.94202000      10.12500000       0.00016433      -0.00119660      -0.00024632
C        1.23002000      12.07234000      10.12500000      -0.00013852       0.00463782      -0.00025124
C        0.00000000      14.20280000      10.12500000      -0.00095420       0.00131447      -0.00015821
C        9.84002000       1.42031000      10.12500000      -0.00080499      -0.00151866      -0.00021681
C        8.61000000       3.55078000      10.12500000       0.00291745      -0.00444348      -0.00015492
C        7.38006000       5.68109000      10.12500000      -0.00014530       0.00130999      -0.00016321
C        6.15004000       7.81156000      10.12500000      -0.00239957       0.00021395      -0.00021647
C        4.92001000       9.94202000      10.12500000       0.00086752      -0.00157183      -0.00014779
C        3.69007000      12.07234000      10.12500000      -0.00003415       0.00464197      -0.00040312
C        2.46005000      14.20280000      10.12500000      -0.00044879       0.00099773      -0.00015696
C       12.29990000       1.42031000      10.12500000      -0.00336376      -0.00836078       0.00132274
C       11.06988000       3.55078000      10.12500000       0.00734709      -0.00461320      -0.00014788
C        9.83994000       5.68109000      10.12500000       0.00502996       0.00062643      -0.00024659
C        8.60991000       7.81156000      10.12500000       0.00532294      -0.00149923      -0.00015684
C        7.37989000       9.94202000      10.12500000      -0.00626288      -0.00498022       0.00133251
C        6.14995000      12.07234000      10.12500000      -0.00089129       0.00937179       0.00218242
C        4.91993000      14.20280000      10.12500000       0.00658801      -0.00853873       0.00218020
C       14.75995000       1.42031000      10.12500000       0.00694841       0.02268042      -0.00519339
C       13.52993000       3.55078000      10.12500000      -0.00377887      -0.00060337       0.00122232
C       12.29999000       5.68109000      10.12500000      -0.00120437       0.00177002      -0.00016458
C       11.06996000       7.81156000      10.12500000       0.00006275      -0.00095816      -0.00016575
C        9.83994000       9.94202000      10.12500000      -0.00047600      -0.00867418       0.00122270
C        8.61000000      12.07234000      10.12500000       0.02237027      -0.00072773      -0.00519305
C        7.37998000      14.20280000      10.12500000      -0.16025287      -0.09238014       0.02514306
Li       1.23002000       0.71016000      12.00000000      -0.00000115       0.00002212       0.00000000
197
Lattice="17.219999313 0.0 0.0 -8.609999657 14.912956858 0.0 0.0 0.0 24.0" Properties=species:S:1:pos:R:3:forces:R:3 energy=-1822.9807091419402 stress="-0.06738761236119917 3.205040791495315e-06 -2.9032255820237227e-18 3.205040791495315e-06 -0.06738406165439491 -1.0408045447930787e-18 -2.9032255820237227e-18 -1.0408045447930787e-18 -4.474317901136865e-05" free_energy=-1822.9807091419402 pbc="T T T"
C        0.00000000       0.00000000      13.87751967      -0.17891517      -0.10340749       0.02125336
C       -1.23002000       2.13047000      13.87320425      -0.16021059       0.09133743       0.00922835
C       14.76004000       4.26078000      13.87484454      -0.00892945      -0.00090187       0.00156802
C       13.53001000       6.39125000      13.87501128       0.00209728      -0.00019246      -0.00040559
C       -4.92001000       8.52171000      13.87501131       0.00096905       0.00189004      -0.00040940
C       11.06996000      10.65218000      13.87484490      -0.00704260      -0.00728179       0.00157012
C        9.84002000      12.78249000      13.87320405       0.00039935      -0.18350373       0.00922778
C        2.46005000       0.00000000      13.87751501       0.17778366      -0.10421719       0.02124571
C        1.23002000       2.13047000      13.87751273      -0.00070354       0.20476774       0.02124621
C        0.00009000       4.26078000      13.87537052       0.01835433       0.00919034      -0.00867361
C       -1.22994000       6.39125000      13.87490551      -0.01204022       0.00230595      -0.00063406
C       -2.45996000       8.52171000      13.87501504      -0.00233822      -0.00095834       0.00031397
C       -3.68999000      10.65218000      13.87490534      -0.00323705      -0.01703064      -0.00063788
C       -4.91993000      12.78249000      13.87536983       0.01520817       0.01759826      -0.00867671
C        4.91993000       0.00000000      13.87537208      -0.00278586      -0.02038425      -0.00867757
C        3.68990000       2.13047000      13.87320626       0.16440313       0.09321420       0.00921448
C        2.45996000       4.26078000      13.87537127      -0.02146029       0.01179565      -0.00867940
C        1.22994000       6.39125000      13.87491320       0.00419220       0.00946687      -0.00292193
C       -0.00009000       8.52171000      13.87501169       0.00435553       0.00330693       0.00045304
C       -1.23011000      10.65218000      13.87501147       0.00514982      -0.00322793       0.00044962
C       -2.46005000      12.78249000      13.87491255       0.01104588      -0.00043646      -0.00292155
C        7.37998000       0.00000000      13.87490620       0.00822904       0.00780316      -0.00063415
C        6.14995000       2.13047000      13.87484509      -0.00146960       0.00643903       0.00156539
C        4.92001000       4.26078000      13.87484458       0.00282253      -0.00112306       0.00156188
C        3.68999000       6.39125000      13.87490619       0.01112210       0.00284918      -0.00063664
C        2.45996000       8.52171000      13.87501197       0.00023579       0.00107143       0.00045660
C        1.22994000      10.65218000      13.87501823      -0.00005978      -0.00503483       0.00029653
C        0.00000000      12.78249000      13.87501127       0.00075634       0.00085810       0.00045791
C        9.84002000       0.00000000      13.87501560       0.00041719       0.00124221       0.00032100
C        8.61000000       2.13047000      13.87501115      -0.00049475      -0.00268609      -0.00041068
C        7.38006000       4.26078000      13.87502843      -0.00387392       0.00381201      -0.00063665
C        6.15004000       6.39125000      13.87501125      -0.00161251      -0.00024090      -0.00040716
C        4.92001000       8.52171000      13.87501564       0.00166593      -0.00032305       0.00031567
C        3.68999000      10.65218000      13.87501166      -0.00043110      -0.00537455       0.00045677
C        2.46005000      12.78249000      13.87501122      -0.00071770       0.00102445       0.00046167
C       12.30007000       0.00000000      13.87490553      -0.01352560       0.00852208      -0.00063519
C       11.07005000       2.13047000      13.87501054      -0.00442396      -0.00224201      -0.00041709
C        9.84011000       4.26078000      13.87501686      -0.00818758       0.00473224       0.00031511
C        8.61009000       6.39125000      13.87501754      -0.00550263       0.00031834       0.00032288
C        7.38006000       8.52171000      13.87501066      -0.00598007       0.00239351      -0.00041807
C        6.15004000      10.65218000      13.87490531      -0.00235515      -0.01578572      -0.00064366
C        4.92010000      12.78249000      13.87491214      -0.01187002      -0.00189641      -0.00292057
C       14.75995000       0.00000000      13.87537138       0.00780178      -0.02197566      -0.00867983
C       13.52993000       2.13047000      13.87484476       0.00246889       0.00706757       0.00156809
C       12.29999000       4.26078000      13.87502834      -0.00106465       0.00425078      -0.00064008
C       11.06996000       6.39125000      13.87501805       0.00146476       0.00018120       0.00032657
C        9.83994000       8.52171000      13.87502908       0.00084998       0.00201221      -0.00063713
C        8.60991000      10.65218000      13.87484471       0.00912898      -0.00697267       0.00156415
C        7.37998000      12.78249000      13.87537059      -0.01513553       0.01877519      -0.00868258
C        0.00000000       1.42031000      13.87751911      -0.17901978       0.10378296       0.02121743
C       -1.23002000       3.55078000      13.87537045      -0.01282313      -0.02110962      -0.00868382
C       -2.45996000       5.68109000      13.87490596       0.00261777       0.01290818      -0.00063460
C       -3.68999000       7.81156000      13.87501565       0.00151570       0.00083874       0.00031727
C       -4.92001000       9.94202000      13.87490549       0.01119906      -0.00424753      -0.00063373
C       -6.14995000      12.07234000      13.87537110      -0.02292885      -0.00068882      -0.00868344
C       -7.37998000      14.20280000      13.87751864       0.00027962      -0.20670506       0.02122368
C        2.46005000       1.42031000      13.87751914       0.17490603       0.10177118       0.02121686
C        1.23002000       3.55078000      13.87320422      -0.00083832       0.17839731       0.00918421
C        0.00009000       5.68109000      13.87484433       0.00316448       0.00176618       0.00157219
C       -1.22994000       7.81156000      13.87501104      -0.00505844      -0.00363382      -0.00041259
C       -2.45996000       9.94202000      13.87501045      -0.00617012      -0.00319724      -0.00041547
C       -3.68990000      12.07234000      13.87484461       0.00139360       0.00779484       0.00156375
C       -4.91993000      14.20280000      13.87320412       0.15622564      -0.09462555       0.00920355
C        4.91993000       1.42031000      13.87537018      -0.00595473       0.02323191      -0.00865802
C        3.68990000       3.55078000      13.87536969       0.01995383      -0.02059607      -0.00866765
C        2.45996000       5.68109000      13.87484382      -0.00648459       0.00442157       0.00157835
C        1.22994000       7.81156000      13.87502850       0.00080529      -0.00049318      -0.00062954
C       -0.00009000       9.94202000      13.87501698       0.00098960      -0.00052159       0.00032666
C       -1.23002000      12.07234000      13.87502828      -0.00058627       0.00581753      -0.00063845
C       -2.46005000      14.20280000      13.87484405      -0.00050940      -0.00730048       0.00157789
C        7.37998000       1.42031000      13.87490603       0.00815882      -0.00787901      -0.00062695
C        6.14995000       3.55078000      13.87491269       0.00958570      -0.00063693      -0.00291360
C        4.92001000       5.68109000      13.87490589      -0.00275692       0.01267682      -0.00063059
C        3.68999000       7.81156000      13.87501124       0.00063467      -0.00156059      -0.00040382
C        2.45996000       9.94202000      13.87501759       0.00016190      -0.00119517       0.00032997
C        1.23002000      12.07234000      13.87501795      -0.00013852       0.00463500       0.00032416
C        0.00000000      14.20280000      13.87501130      -0.00097475       0.00131485      -0.00040915
C        9.84002000       1.42031000      13.87501549      -0.00080496      -0.00151004       0.00031576
C        8.61000000       3.55078000      13.87501107       0.00291421      -0.00444917       0.00045188
C        7.38006000       5.68109000      13.87501166      -0.00015187       0.00131001       0.00045608
C        6.15004000       7.81156000      13.87501546      -0.00239211       0.00020968       0.00031692