197
Lattice="17.219999313 0.0 0.0 -8.609999657 14.912956858 0.0 0.0 0.0 24.0" Properties=species:S:1:pos:R:3:forces:R:3 energy=-1821.9296947258033 stress="-0.06543805874618074 3.2851325526036766e-06 -4.767008655184759e-09 3.2851325526036766e-06 -0.06543445145677035 -6.413694716050542e-09 -4.767008655184759e-09 -6.413694716050542e-09 -0.0032908814098815816" free_energy=-1821.9296947258033 pbc="T T T"
C        0.00000000       0.00000000      13.67500000       0.00011203      -0.31713239       0.18882217
C       -1.23002000       2.13047000      13.67500000      -0.27454714       0.15734474       0.18878186
C       14.76004000       4.26078000      13.67500000      -0.00229544      -0.01567677       0.03276073
C       13.53001000       6.39125000      13.67500000       0.00044568      -0.00054731       0.03644951
C       -4.92001000       8.52171000      13.67500000      -0.00069271       0.00004178       0.03748184
C       11.06996000      10.65218000      13.67500000       0.00040807      -0.00466637       0.03642544
C        9.84002000      12.78249000      13.67500000      -0.01671868       0.01209173       0.03275514
C        2.46005000       0.00000000      13.67500000       0.06024308      -0.03632754       0.06129583
C        1.23002000       2.13047000      13.67500000       0.27381735       0.15657505       0.18876124
C        0.00009000       4.26078000      13.67500000      -0.00431101       0.07491303       0.06127274
C       -1.22994000       6.39125000      13.67500000      -0.01918302       0.00092343       0.03656747
C       -2.45996000       8.52171000      13.67500000      -0.00196475      -0.00105437       0.03731272
C       -3.68999000      10.65218000      13.67500000      -0.00161672      -0.00590264       0.03729828
C       -4.91993000      12.78249000      13.67500000      -0.00820410      -0.01627711       0.03655262
C        4.91993000       0.00000000      13.67500000       0.01494190       0.01690823       0.03655492
C        3.68990000       2.13047000      13.67500000      -0.01335475       0.01029871       0.03275092
C        2.45996000       4.26078000      13.67500000       0.00051656      -0.01362398       0.03274680
C        1.22994000       6.39125000      13.67500000       0.02271060       0.00382434       0.03655718
C       -0.00009000       8.52171000      13.67500000       0.00451938       0.00510098       0.03734271
C       -1.23011000      10.65218000      13.67500000       0.00454101      -0.00270635       0.03752990
C       -2.46005000      12.78249000      13.67500000       0.00671603       0.00215160       0.03733788
C        7.37998000       0.00000000      13.67500000      -0.00068834       0.00078201       0.03732335
C        6.14995000       2.13047000      13.67500000      -0.00009485      -0.00141580       0.03642793
C        4.92001000       4.26078000      13.67500000      -0.02140282      -0.00623202       0.03712074
C        3.68999000       6.39125000      13.67500000      -0.00032391      -0.00081012       0.03644488
C        2.45996000       8.52171000      13.67500000       0.00092048      -0.00060388       0.03731751
C        1.22994000      10.65218000      13.67500000      -0.00013124      -0.00509251       0.03754578
C        0.00000000      12.78249000      13.67500000      -0.00008019       0.00115395       0.03755464
C        9.84002000       0.00000000      13.67500000       0.00074260       0.00099269       0.03733103
C        8.61000000       2.13047000      13.67500000       0.00031854      -0.00031947       0.03747668
C        7.38006000       4.26078000      13.67500000      -0.00233263       0.00361181       0.03756429
C        6.15004000       6.39125000      13.67500000      -0.00033197       0.00052855       0.03758891
C        4.92001000       8.52171000      13.67500000       0.00121084      -0.00001052       0.03748495
C        3.68999000      10.65218000      13.67500000       0.00139572      -0.00520121       0.03731088
C        2.46005000      12.78249000      13.67500000      -0.00215428       0.00009438       0.03736087
C       12.30007000       0.00000000      13.67500000      -0.01594463       0.01539410       0.03655504
C       11.07005000       2.13047000      13.67500000      -0.00499795      -0.00066189       0.03641314
C        9.84011000       4.26078000      13.67500000      -0.00878086       0.00412297       0.03754177
C        8.61009000       6.39125000      13.67500000      -0.00538488       0.00020831       0.03756658
C        7.38006000       8.52171000      13.67500000      -0.00606886       0.00094224       0.03755624
C        6.15004000      10.65218000      13.67500000      -0.00497735      -0.00415591       0.03640581
C        4.92010000      12.78249000      13.67500000       0.00220478      -0.01503660       0.03654281
C       14.75995000       0.00000000      13.67500000      -0.06030432      -0.03520348       0.06130071
C       13.52993000       2.13047000      13.67500000       0.01863998       0.00870567       0.03274087
C       12.29999000       4.26078000      13.67500000       0.01606492      -0.00560615       0.03711220
C       11.06996000       6.39125000      13.67500000       0.00178321       0.00093423       0.03757231
C        9.83994000       8.52171000      13.67500000       0.00185141       0.00082129       0.03756314
C        8.60991000      10.65218000      13.67500000       0.00151839       0.01643701       0.03711091
C        7.37998000      12.78249000      13.67500000       0.01792738       0.01251444       0.03274164
C       -0.00000000       1.42031000      13.67500000       0.00006634       0.00041331       3.83153189
C       -1.23002000       3.55078000      13.67500000      -0.01998280       0.15056140       0.04861311
C       -2.45996000       5.68109000      13.67500000       0.00734523       0.02412670       0.02875423
C       -3.68999000       7.81156000      13.67500000       0.00106252      -0.00018962       0.03230897
C       -4.92001000       9.94202000      13.67500000      -0.00004045      -0.00007017       0.03230834
C       -6.14995000      12.07234000      13.67500000       0.02305306      -0.00012242       0.02875871
C       -7.37998000      14.20280000      13.67500000       0.12281993      -0.09733209       0.04860003
C        2.46005000       1.42031000      13.67500000       0.14123118      -0.05906063       0.04859147
C        1.23002000       3.55078000      13.67500000       0.02231754       0.14812478       0.04861023
C        0.00009000       5.68109000      13.67500000      -0.00452940      -0.01419537       0.02226726
C       -1.22994000       7.81156000      13.67500000      -0.00610149      -0.00497957       0.03241571
C       -2.45996000       9.94202000      13.67500000      -0.00476692      -0.00331487       0.03258601
C       -3.68990000      12.07234000      13.67500000      -0.00801199       0.00220493       0.03240626
C       -4.91993000      14.20280000      13.67500000      -0.01568093       0.00448673       0.02227533
C        4.91993000       1.42031000      13.67500000       0.01664601      -0.01678765       0.02876204
C        3.68990000       3.55078000      13.67500000       0.02565165       0.00872830       0.02915079
C        2.45996000       5.68109000      13.67500000      -0.00630420       0.02458038       0.02875638
C        1.22994000       7.81156000      13.67500000       0.00273399      -0.00206454       0.03242404
C       -0.00009000       9.94202000      13.67500000       0.00117479      -0.00032001       0.03265515
C       -1.23002000      12.07234000      13.67500000       0.00055835       0.00523667       0.03264558
C       -2.46005000      14.20280000      13.67500000      -0.00030702       0.00358255       0.03241993
C        7.37998000       1.42031000      13.67500000      -0.00109916      -0.00018009       0.03231189
C        6.14995000       3.55078000      13.67500000       0.00891993      -0.00865503       0.03194247
C        4.92001000       5.68109000      13.67500000      -0.00064506       0.00841695       0.03194583
C        3.68999000       7.81156000      13.67500000      -0.00102832      -0.00045305       0.03231330
C        2.45996000       9.94202000      13.67500000       0.00028006      -0.00125873       0.03259586
C        1.23002000      12.07234000      13.67500000      -0.00023005       0.00446389       0.03264717
C        0.00000000      14.20280000      13.67500000      -0.00018365       0.00006581       0.03259314
C        9.84002000       1.42031000      13.67500000      -0.00014968      -0.00056069       0.03230702
C        8.61000000       3.55078000      13.67500000       0.00212495      -0.00559395       0.03258742
C        7.38006000       5.68109000      13.67500000      -0.00049645       0.00101019       0.03262211
C        6.15004000       7.81156000      13.67500000      -0.00188462      -0.00009888       0.03259556
C        4.92001000       9.94202000      13.67500000      -0.00090910      -0.00067683       0.03230738
C        3.69007000      12.07234000      13.67500000       0.00230617       0.00385485       0.03241108
C        2.46005000      14.20280000      13.67500000       0.00019608       0.00246765       0.03241626
C       12.29990000       1.42031000      13.67500000      -0.01067021      -0.01802201       0.02876219
C       11.06988000       3.55078000      13.67500000       0.00228306      -0.00916103       0.03193399
C        9.83994000       5.68109000      13.67500000       0.00468574       0.00083795       0.03261902
C        8.60991000       7.81156000      13.67500000       0.00545572      -0.00107241       0.03262320
C        7.37989000       9.94202000      13.67500000      -0.00146791      -0.00470762       0.03194116
C        6.14995000      12.07234000      13.67500000      -0.01828281      -0.00089488       0.02875574
C        4.91993000      14.20280000      13.67500000       0.01651518       0.00600086       0.02227550
C       14.75995000       1.42031000      13.67500000      -0.14573575      -0.05709405       0.04859376
C       13.52993000       3.55078000      13.67500000      -0.01876712       0.00799484       0.02915313
C       12.29999000       5.68109000      13.67500000       0.00011145       0.00846329       0.03194404
C       11.06996000       7.81156000      13.67500000       0.00060961       0.00028982       0.03259880
C        9.83994000       9.94202000      13.67500000       0.00607603      -0.00411918       0.03194710
C        8.61000000      12.07234000      13.67500000      -0.00053701      -0.02050068       0.02915703
C        7.37998000      14.20280000      13.67500000      -0.12306600      -0.09755544       0.04859851
C        0.00000000       0.00000000      10.32500000      -0.00029627      -0.30598719      -0.22557052
C       -1.23002000       2.13047000      10.32500000      -0.26572082       0.15160796      -0.22551561
C       14.76004000       4.26078000      10.32500000      -0.01926318      -0.01675312      -0.04102142
C       13.53001000       6.39125000      10.32500000       0.00435392       0.01144112      -0.03596253
C       -4.92001000       8.52171000      10.32500000       0.00120160       0.00121889      -0.03747141
C       11.06996000      10.65218000      10.32500000       0.01543541      -0.00663270      -0.03594756
C        9.84002000      12.78249000      10.32500000      -0.02796518      -0.00422361      -0.04101658
C        2.46005000       0.00000000      10.32500000       0.17014824      -0.09902281      -0.00784364
C        1.23002000       2.13047000      10.32500000       0.26450137       0.15121295      -0.22547555
C        0.00009000       4.26078000      10.32500000      -0.00148822       0.20211289      -0.00785058
C       -1.22994000       6.39125000      10.32500000       0.00792091      -0.00490881      -0.03557163
C       -2.45996000       8.52171000      10.32500000      -0.00238679      -0.00169992      -0.03746700
C       -3.68999000      10.65218000      10.32500000       0.00015587      -0.00498782      -0.03744323
C       -4.91993000      12.78249000      10.32500000       0.00001213       0.01040137      -0.03556140
C        4.91993000       0.00000000      10.32500000      -0.00297835      -0.00579233      -0.03557283
C        3.68990000       2.13047000      10.32500000      -0.00410055       0.02496621      -0.04100450
C        2.45996000       4.26078000      10.32500000       0.02374947      -0.01719598      -0.04100067
C        1.22994000       6.39125000      10.32500000      -0.00372061      -0.00504849      -0.03556561
C       -0.00009000       8.52171000      10.32500000       0.00538546      -0.00209995      -0.03769958
C       -1.23011000      10.65218000      10.32500000       0.00806785      -0.00507978      -0.03753725
C       -2.46005000      12.78249000      10.32500000       0.00361672       0.00161782      -0.03768296
C        7.37998000       0.00000000      10.32500000      -0.00133735       0.00204215      -0.03748045
C        6.14995000       2.13047000      10.32500000       0.00801480      -0.01116471      -0.03596092
C        4.92001000       4.26078000      10.32500000       0.00542432       0.00819281      -0.03575424
C        3.68999000       6.39125000      10.32500000      -0.00487417       0.01150296      -0.03596559
C        2.45996000       8.52171000      10.32500000       0.00093482      -0.00129421      -0.03748369
C        1.22994000      10.65218000      10.32500000       0.00304809      -0.00456783      -0.03755990
C        0.00000000      12.78249000      10.32500000      -0.00031872       0.00133678      -0.03756661
C        9.84002000       0.00000000      10.32500000       0.00125691       0.00225232      -0.03747275
C        8.61000000       2.13047000      10.32500000       0.00008007      -0.00304262      -0.03745253
C        7.38006000       4.26078000      10.32500000       0.00100316       0.00537697      -0.03743816
C        6.15004000       6.39125000      10.32500000       0.00056952       0.00045734      -0.03745258
C        4.92001000       8.52171000      10.32500000      -0.00132320       0.00148361      -0.03746659
C        3.68999000      10.65218000      10.32500000       0.00517419      -0.00437097      -0.03745197
C        2.46005000      12.78249000      10.32500000       0.00148920       0.00237193      -0.03769829
C       12.30007000       0.00000000      10.32500000       0.00395162      -0.00729682      -0.03557107
C       11.07005000       2.13047000      10.32500000      -0.01255188      -0.01322144      -0.03593786
C        9.84011000       4.26078000      10.32500000      -0.00541339       0.00299020      -0.03742225
C        8.61009000       6.39125000      10.32500000      -0.00451957      -0.00249535      -0.03755618
C        7.38006000       8.52171000      10.32500000      -0.00449019      -0.00272436      -0.03744535
C        6.15004000      10.65218000      10.32500000      -0.01362731      -0.00868442      -0.03592741
C        4.92010000      12.78249000      10.32500000      -0.00531045       0.00878519      -0.03555693
C       14.75995000       0.00000000      10.32500000      -0.17027731      -0.09795502      -0.00785228
C       13.52993000       2.13047000      10.32500000       0.01008290       0.02614957      -0.04100768
C       12.29999000       4.26078000      10.32500000      -0.00518793       0.00889100      -0.03574114
C       11.06996000       6.39125000      10.32500000       0.00047562       0.00090813      -0.03744788
C        9.83994000       8.52171000      10.32500000       0.00094675       0.00019070      -0.03745625
C        8.60991000      10.65218000      10.32500000       0.00432282      -0.01047371      -0.03573980
C        7.37998000      12.78249000      10.32500000       0.02864891      -0.00344240      -0.04100520
C        1.23002000       0.71016000      10.32500000       0.25951011      -0.14947976      -0.21238507
C        0.00000000       2.84062000      10.32500000       0.00050372       0.29498278      -0.21238426
C       -1.22994000       4.97094000      10.32500000       0.02867158       0.00637603      -0.03735562
C       -2.45996000       7.10140000      10.32500000      -0.01238148       0.00224175      -0.03128338
C       -3.68999000       9.23187000      10.32500000      -0.00104725      -0.00214261      -0.03251998
C       -4.91993000      11.36218000      10.32500000      -0.00719852      -0.00736717      -0.03127679
C       -6.14995000      13.49265000      10.32500000       0.01881396       0.02134273      -0.03736270
C        3.69007000       0.71016000      10.32500000      -0.01429533      -0.02640388      -0.03735560
C        2.46005000       2.84062000      10.32500000       0.16655633       0.09510868      -0.00535368
C        1.23011000       4.97094000      10.32500000      -0.03320093       0.00695749      -0.03735284
C        0.00009000       7.10140000      10.32500000      -0.00545177       0.00710896      -0.03089931
C       -1.22994000       9.23187000      10.32500000      -0.00528810       0.00030333      -0.03254151
C       -2.45988000      11.36218000      10.32500000      -0.00753896       0.00436160      -0.03253716
C       -3.68990000      13.49265000      10.32500000       0.00034886      -0.00308203      -0.03089857
C        6.14995000       0.71016000      10.32500000       0.00930387       0.01020564      -0.03127599
C        4.91993000       2.84062000      10.32500000      -0.00697544       0.00131752      -0.03094043
C        3.68999000       4.97094000      10.32500000       0.00155422      -0.00818462      -0.03094709
C        2.45996000       7.10140000      10.32500000       0.01365747       0.00261971      -0.03127955
C        1.22994000       9.23187000      10.32500000       0.00109759       0.00013031      -0.03254459
C       -0.00000000      11.36218000      10.32500000      -0.00212471       0.00483495      -0.03264193
C       -1.23002000      13.49265000      10.32500000       0.00172420      -0.00023006      -0.03254756
C        8.61000000       0.71016000      10.32500000       0.00019639       0.00198724      -0.03252297
C        7.37998000       2.84062000      10.32500000      -0.00076510      -0.00626379      -0.03247808
C        6.15004000       4.97094000      10.32500000      -0.00171480       0.00011764      -0.03278209
C        4.92001000       7.10140000      10.32500000      -0.00165083       0.00020480      -0.03248827
C        3.68999000       9.23187000      10.32500000       0.00157997      -0.00209328      -0.03252203
C        2.46005000      11.36218000      10.32500000      -0.00365858       0.00385177      -0.03254575
C        1.23002000      13.49265000      10.32500000      -0.00047260      -0.00061142      -0.03255252
C       11.07005000       0.71016000      10.32500000      -0.00917458       0.00909387      -0.03127986
C        9.84002000       2.84062000      10.32500000       0.00043455      -0.00703535      -0.03247662
C        8.61009000       4.97094000      10.32500000      -0.00117501       0.00021526      -0.03264487
C        7.38006000       7.10140000      10.32500000      -0.00100704      -0.00057698      -0.03264572
C        6.15004000       9.23187000      10.32500000      -0.00221486      -0.00024827      -0.03248224
C        4.92010000      11.36218000      10.32500000       0.00027933      -0.00807171      -0.03127586
C        3.69007000      13.49265000      10.32500000      -0.00632921      -0.00431817      -0.03090341
C       13.52993000       0.71016000      10.32500000       0.01342326      -0.02488425      -0.03735630
C       12.29990000       2.84062000      10.32500000       0.01268099       0.00295879      -0.03094058
C       11.06996000       4.97094000      10.32500000       0.00620156       0.00217695      -0.03277244
C        9.83994000       7.10140000      10.32500000       0.00437427       0.00233929      -0.03263712
C        8.60991000       9.23187000      10.32500000       0.00453165       0.00277360      -0.03276837
C        7.37998000      11.36218000      10.32500000       0.00958358       0.01087255      -0.03094188
C        6.14995000      13.49265000      10.32500000      -0.01425180       0.02330691      -0.03735604
C       15.98997000       0.71016000      10.32500000      -0.25882330      -0.14967860      -0.21237591
C       14.75995000       2.84062000      10.32500000      -0.17133850       0.09445142      -0.00534941
C       13.53001000       4.97094000      10.32500000      -0.00059630      -0.00879324      -0.03094820
C       12.29999000       7.10140000      10.32500000       0.00161476      -0.00005830      -0.03248387
C       11.06996000       9.23187000      10.32500000       0.00117683       0.00020616      -0.03247942
C        9.84002000      11.36218000      10.32500000      -0.01189336       0.00849445      -0.03094537
C        8.61000000      13.49265000      10.32500000      -0.00008045      -0.19876354      -0.00535704
Li      -0.00000000       1.42031000      12.00000000      -0.00000049      -0.00002286      -3.37362514
197
Lattice="17.219999313 0.0 0.0 -8.609999657 14.912956858 0.0 0.0 0.0 24.0" Properties=species:S:1:pos:R:3:forces:R:3 energy=-1822.3363112948302 stress="-0.06546048579086879 3.285786678790991e-06 9.26024246923166e-10 3.285786678790991e-06 -0.06545687454159974 -1.9651681745426204e-08 9.26024246923166e-10 -1.9651681745426204e-08 -0.002679889795167428" free_energy=-1822.3363112948302 pbc="T T T"
C        0.00000000       0.00000000      13.68111887       0.00010757      -0.23552431       0.74826867
C       -1.23002000       2.13047000      13.68111756      -0.20388087       0.11655167       0.74827522
C       14.76004000       4.26078000      13.67606163      -0.01000206      -0.01328893      -0.01938832
C       13.53001000       6.39125000      13.67618116      -0.00113643      -0.00083177       0.03212045
C       -4.92001000       8.52171000      13.67621462      -0.00071564       0.00002861       0.03482899
C       11.06996000      10.65218000      13.67618038      -0.00062947      -0.00589056       0.03210977
C        9.84002000      12.78249000      13.67606144      -0.01849036       0.00420798      -0.01938481
C        2.46005000       0.00000000      13.67698632       0.05366216      -0.03252319       0.09606234
C        1.23002000       2.13047000      13.68111689       0.20316972       0.11578880       0.74829313
C        0.00009000       4.26078000      13.67698557      -0.00431095       0.06729996       0.09607847
C       -1.22994000       6.39125000      13.67618498      -0.01672524       0.00542482       0.02837467
C       -2.45996000       8.52171000      13.67620913      -0.00185112      -0.00072888       0.03477608
C       -3.68999000      10.65218000      13.67620867      -0.00127760      -0.00596677       0.03476656
C       -4.91993000      12.78249000      13.67618450      -0.00307942      -0.01640110       0.02837228
C        4.91993000       0.00000000      13.67618458       0.01760676       0.01252611       0.02837460
C        3.68990000       2.13047000      13.67606131      -0.00743001       0.01578220      -0.01939642
C        2.45996000       4.26078000      13.67606117       0.00821684      -0.01124399      -0.01939659
C        1.22994000       6.39125000      13.67618465       0.02024673       0.00832265       0.02837108
C       -0.00009000       8.52171000      13.67621011       0.00451910       0.00479428       0.03471680
C       -1.23011000      10.65218000      13.67621617       0.00451905      -0.00271870       0.03489124
C       -2.46005000      12.78249000      13.67620995       0.00645015       0.00230469       0.03471002
C        7.37998000       0.00000000      13.67620948      -0.00046320       0.00052074       0.03478457
C        6.14995000       2.13047000      13.67618046       0.00044981       0.00009695       0.03210988
C        4.92001000       4.26078000      13.67620291      -0.01722264      -0.00382059       0.03332984
C        3.68999000       6.39125000      13.67618101       0.00125864      -0.00109455       0.03211876
C        2.45996000       8.52171000      13.67620929       0.00080695      -0.00027824       0.03478261
C        1.22994000      10.65218000      13.67621669      -0.00010940      -0.00510443       0.03490185
C        0.00000000      12.78249000      13.67621697      -0.00008006       0.00117900       0.03490446
C        9.84002000       0.00000000      13.67620973       0.00051719       0.00073123       0.03478745
C        8.61000000       2.13047000      13.67621445       0.00031843      -0.00029297       0.03482437
C        7.38006000       4.26078000      13.67621729      -0.00227565       0.00368522       0.03487452
C        6.15004000       6.39125000      13.67621809      -0.00023980       0.00054098       0.03489009
C        4.92001000       8.52171000      13.67621472       0.00123365      -0.00002387       0.03483063
C        3.68999000      10.65218000      13.67620908       0.00105671      -0.00526505       0.03477596
C        2.46005000      12.78249000      13.67621070      -0.00188857       0.00024761       0.03472297
C       12.30007000       0.00000000      13.67618458      -0.01860891       0.01101398       0.02837522
C       11.07005000       2.13047000      13.67617998      -0.00553946       0.00084945       0.03210089
C        9.84011000       4.26078000      13.67621656      -0.00883690       0.00419639       0.03486005
C        8.61009000       6.39125000      13.67621736      -0.00538451       0.00020840       0.03491788
C        7.38006000       8.52171000      13.67621703      -0.00603292       0.00085618       0.03487108
C        6.15004000      10.65218000      13.67617975      -0.00393936      -0.00538034       0.03209723
C        4.92010000      12.78249000      13.67618419      -0.00292022      -0.01515990       0.02836615
C       14.75995000       0.00000000      13.67698648      -0.05372692      -0.03140301       0.09606594
C       13.52993000       2.13047000      13.67606098       0.01270036       0.01418343      -0.01939159
C       12.29999000       4.26078000      13.67620264       0.01188864      -0.00319600       0.03332490
C       11.06996000       6.39125000      13.67621755       0.00169081       0.00094662       0.03488050
C        9.83994000       8.52171000      13.67621725       0.00181573       0.00073526       0.03487641
C        8.60991000      10.65218000      13.67620260       0.00151837       0.01161667       0.03332715
C        7.37998000      12.78249000      13.67606101       0.01969930       0.00462896      -0.01939172
C        0.00000000       1.42031000      13.79916247       0.00005371       0.00040667      -0.19082220
C       -1.23002000       3.55078000      13.67657533      -0.02698843       0.14601775       0.01529753
C       -2.45996000       5.68109000      13.67593179       0.00781049       0.01955846       0.03243201
C       -3.68999000       7.81156000      13.67604699       0.00090839      -0.00074527       0.03451632
C       -4.92001000       9.94202000      13.67604697      -0.00059849       0.00007432       0.03450853
C       -6.14995000      12.07234000      13.67593194       0.01933092       0.00256131       0.03242210
C       -7.37998000      14.20280000      13.67657491       0.11536708      -0.10112647       0.01531294
C        2.46005000       1.42031000      13.67657463       0.14080092      -0.05072951       0.01528136
C        1.23002000       3.55078000      13.67657524       0.02931945       0.14359937       0.01527975
C        0.00009000       5.68109000      13.67572158      -0.00451991      -0.00596533       0.03581474
C       -1.22994000       7.81156000      13.67605045      -0.00564696      -0.00549452       0.03453559
C       -2.45996000       9.94202000      13.67605596      -0.00472364      -0.00328951       0.03469650
C       -3.68990000      12.07234000      13.67605014      -0.00823105       0.00285437       0.03452234
C       -4.91993000      14.20280000      13.67572184      -0.00854939       0.00037571       0.03581615
C        4.91993000       1.42031000      13.67593205       0.01245929      -0.01490872       0.03242910
C        3.68990000       3.55078000      13.67594464       0.02576067       0.00879347       0.03957491
C        2.45996000       5.68109000      13.67593186      -0.00677016       0.02001404       0.03242755
C        1.22994000       7.81156000      13.67605072       0.00227989      -0.00258013       0.03454013
C       -0.00009000       9.94202000      13.67605820       0.00117444      -0.00036261       0.03478013
C       -1.23002000      12.07234000      13.67605789       0.00052093       0.00525716       0.03477467
C       -2.46005000      14.20280000      13.67605058      -0.00098045       0.00344779       0.03453700
C        7.37998000       1.42031000      13.67604708      -0.00150357       0.00023085       0.03451532
C        6.14995000       3.55078000      13.67603511       0.00808096      -0.00883464       0.03435812
C        4.92001000       5.68109000      13.67603522      -0.00122033       0.00778108       0.03436805
C        3.68999000       7.81156000      13.67604713      -0.00087438      -0.00100881       0.03451942
C        2.45996000       9.94202000      13.67605628       0.00023723      -0.00123398       0.03470945
C        1.23002000      12.07234000      13.67605795      -0.00019313       0.00448435       0.03478317
C        0.00000000      14.20280000      13.67605620      -0.00018373       0.00001666       0.03471456
C        9.84002000       1.42031000      13.67604692       0.00025445      -0.00014986       0.03451048
C        8.61000000       3.55078000      13.67605601       0.00212492      -0.00556130       0.03476403
C        7.38006000       5.68109000      13.67605713      -0.00053400       0.00098807       0.03484524
C        6.15004000       7.81156000      13.67605627      -0.00185634      -0.00011481       0.03477854