13
Lattice="4.260799885 0.0 0.0 -2.130399942 3.689960941 0.0 0.0 0.0 24.0" Properties=species:S:1:pos:R:3:forces:R:3 energy=-113.6010971069336 stress="-0.009814957156777382 5.061905085312901e-06 6.3212097778375664e-09 5.061905085312901e-06 -0.009820259176194668 3.167246021007486e-09 6.3212097778375664e-09 3.167246021007486e-09 -0.00025600814842619" free_energy=-113.6010971069336 pbc="T T T"
C        0.00000000       0.00000000      13.87500000      -0.00672905      -0.01153826       0.00430323
C       -0.00002000       2.45999000      13.87500000       0.01433191       0.00017815       0.00428119
C        2.13042000       1.22997000      13.87500000      -0.00839440       0.01291982       0.00428212
C        2.84053000       2.45999000      13.87500000      -0.01408996      -0.00070580       0.00431146
C        0.71010000       1.23001000      13.87500000       0.00860075       0.01141109       0.00428130
C        2.84055000       0.00000000      13.87500000       0.00630260      -0.01222230       0.00430104
C        0.00000000       0.00000000      10.12500000      -0.00672893      -0.01153817      -0.00430331
C       -0.00002000       2.45999000      10.12500000       0.01433174       0.00017813      -0.00428101
C        2.13042000       1.22997000      10.12500000      -0.00839442       0.01291973      -0.00428197
C        2.84053000       2.45999000      10.12500000      -0.01409011      -0.00070583      -0.00431147
C        0.71010000       1.23001000      10.12500000       0.00860068       0.01141126      -0.00428133
C        2.84055000       0.00000000      10.12500000       0.00630264      -0.01222254      -0.00430112
Li       1.42030000       2.45999000      12.00000000      -0.00004392      -0.00008554      -0.00000020
13
Lattice="4.260799885 0.0 0.0 -2.130399942 3.689960941 0.0 0.0 0.0 24.0" Properties=species:S:1:pos:R:3:forces:R:3 energy=-113.60111236572266 stress="-0.009830988943576813 -4.813282430404797e-07 -3.965977324327241e-09 -4.813282430404797e-07 -0.009830314666032791 -4.194924130285216e-10 -3.965977324327241e-09 -4.194924130285216e-10 -0.0002560083521530032" free_energy=-113.60111236572266 pbc="T T T"
C       -0.00009613      -0.00016483      13.87506147       0.00095077       0.00181348       0.00430427
C        0.00018474       2.45999254      13.87506116      -0.00170603      -0.00045301       0.00428490
C        2.13030008       1.23015457      13.87506117       0.00086938      -0.00149908       0.00429457
C        2.84032871       2.45997992      13.87506159       0.00193709      -0.00017430       0.00429672
C        0.71022287       1.23017302      13.87506116      -0.00079315      -0.00175572       0.00428468
C        2.84064004      -0.00017460      13.87506144      -0.00123448       0.00208636       0.00429387
C       -0.00009613      -0.00016483      10.12493852       0.00095120       0.00181339      -0.00430413
C        0.00018474       2.45999254      10.12493884      -0.00170607      -0.00045342      -0.00428495
C        2.13030008       1.23015457      10.12493883       0.00086951      -0.00149841      -0.00429446
C        2.84032871       2.45997992      10.12493841       0.00193715      -0.00017430      -0.00429676
C        0.71022287       1.23017302      10.12493884      -0.00079347      -0.00175558      -0.00428483
C        2.84064004      -0.00017461      10.12493856      -0.00123450       0.00208635      -0.00429402
Li       1.42029937       2.45998878      12.00000000      -0.00004709      -0.00003565       0.00000017
