13
Lattice="4.260799885 0.0 0.0 -2.130399942 3.689960941 0.0 0.0 0.0 24.0" Properties=species:S:1:pos:R:3:forces:R:3 energy=-112.76708984375 stress="-0.011803277768194675 5.4359561545425095e-06 -9.772492148840684e-08 5.4359561545425095e-06 -0.01180944312363863 4.031098654877496e-08 -9.772492148840684e-08 4.031098654877496e-08 -0.023181598633527756" free_energy=-112.76708984375 pbc="T T T"
C        0.00000000       0.00000000      13.67500000      -0.11355904      -0.19658571       0.17616674
C       -0.00002000       2.45999000      13.67500000      -0.11318029       0.19720474       0.17616048
C        2.13042000       1.22997000      13.67500000       0.22575530       0.00099272       0.17610580
C        2.84053000       2.45999000      13.67500000      -0.00038294      -0.00072176       0.00403902
C        0.71010000       1.23001000      13.67500000       0.00190635      -0.00060404       3.77201366
C        2.84055000       0.00000000      13.67500000      -0.00056676      -0.00029774       0.00403713
C        0.00000000       0.00000000      10.32500000      -0.03736997      -0.06489088      -0.15416729
C       -0.00002000       2.45999000      10.32500000      -0.03570477       0.06349736      -0.15418012
C        2.13042000       1.22997000      10.32500000       0.07387614      -0.00018140      -0.15412591
C        3.55067000       1.22997000      10.32500000      -0.07453635       0.00073374      -0.15043069
C        1.42025000       0.00000000      10.32500000       0.03798520      -0.06453252      -0.15037310
C        1.42030000       2.45995000      10.32500000       0.03570034       0.06537098      -0.15039644
Li       0.71010000       1.23001000      12.00000000       0.00007686       0.00001447      -3.39484978
13
Lattice="4.260799885 0.0 0.0 -2.130399942 3.689960941 0.0 0.0 0.0 24.0" Properties=species:S:1:pos:R:3:forces:R:3 energy=-113.0376205444336 stress="-0.012073720805346966 5.395396328822244e-06 -4.1431019326410023e-07 5.395396328822244e-06 -0.012079623527824879 1.4147470039915788e-07 -4.1431019326410023e-07 1.4147470039915788e-07 -0.01836726814508438" free_energy=-113.0376205444336 pbc="T T T"
C        0.00000000       0.00000000      13.67751667      -0.10780829      -0.18661837       0.37843099
C       -0.00002000       2.45999000      13.67751658      -0.10741445       0.18721281       0.37841684
C        2.13042000       1.22997000      13.67751580       0.21433529       0.00099305       0.37842935
C        2.84053000       2.45999000      13.67505770      -0.00038371      -0.00071683      -0.00328982
C        0.71010000       1.23001000      13.72888591       0.00181224      -0.00058438       1.73348594
C        2.84055000       0.00000000      13.67505767      -0.00056431      -0.00029717      -0.00329168
C        0.00000000       0.00000000      10.32279761      -0.05185612      -0.08997794      -0.19480485
C       -0.00002000       2.45999000      10.32279743      -0.05017362       0.08857656      -0.19482374
C        2.13042000       1.22997000      10.32279820       0.10283207      -0.00018332      -0.19475362
C        3.55067000       1.22997000      10.32285099      -0.10456769       0.00074238      -0.19437593
C        1.42025000       0.00000000      10.32285181       0.05300171      -0.09053578      -0.19431528
C        1.42030000       2.45995000      10.32285148       0.05070023       0.09138262      -0.19433914
Li       0.71010110       1.23001021      11.95150214       0.00008630       0.00000638      -1.69476914
13
Lattice="4.260799885 0.0 0.0 -2.130399942 3.689960941 0.0 0.0 0.0 24.0" Properties=species:S:1:pos:R:3:forces:R:3 energy=-113.1627426147461 stress="-0.012284544296562672 5.334657089406392e-06 -6.459264909608464e-07 5.334657089406392e-06 -0.012290162034332752 1.793108026504342e-07 -6.459264909608464e-07 1.793108026504342e-07 -0.014810857363045216" free_energy=-113.1627426147461 pbc="T T T"
C        0.00000000       0.00000000      13.68819837      -0.08644928      -0.14961742       0.42036861
C       -0.00002000       2.45999000      13.68819788      -0.08604120       0.15018404       0.42034638
C        2.13042000       1.22997000      13.68819740       0.17168276       0.00098894       0.42040145
C        2.84053000       2.45999000      13.67496900      -0.00038524      -0.00070888       0.11213353
C        0.71010000       1.23001000      13.78002823       0.00173892      -0.00056543       0.38729489
C        2.84055000       0.00000000      13.67496892      -0.00056537      -0.00028969       0.11212921
C        0.00000000       0.00000000      10.31725163      -0.06714579      -0.11645916      -0.23220053
C       -0.00002000       2.45999000      10.31725091      -0.06545023       0.11505109      -0.23222587
C        2.13042000       1.22997000      10.31725368       0.13340347      -0.00018672      -0.23217919
C        3.55067000       1.22997000      10.31731975      -0.13599469       0.00075124      -0.23287384
C        1.42025000       0.00000000      10.31732231       0.06871829      -0.11775111      -0.23282696
C        1.42030000       2.45995000      10.31732129       0.06640071       0.11860455      -0.23284760
Li       0.71010356       1.23001040      11.90172064       0.00008726      -0.00000114      -0.47751999
13
Lattice="4.260799885 0.0 0.0 -2.130399942 3.689960941 0.0 0.0 0.0 24.0" Properties=species:S:1:pos:R:3:forces:R:3 energy=-113.1970443725586 stress="-0.012336831539869308 5.2965992836107034e-06 -7.269960633493611e-07 5.2965992836107034e-06 -0.012342370115220547 1.9194189349036606e-07 -7.269960633493611e-07 1.9194189349036606e-07 -0.013142583891749382" free_energy=-113.1970443725586 pbc="T T T"
C        0.00000000       0.00000000      13.70046284      -0.07322535      -0.12670839       0.36157203
C       -0.00002000       2.45999000      13.70046175      -0.07281011       0.12726103       0.36156860
C        2.13042000       1.22997000      13.70046251       0.14525464       0.00098815       0.36161774
C        2.84053000       2.45999000      13.67736667      -0.00038715      -0.00070089       0.23103227
C        0.71010000       1.23001000      13.80611383       0.00171098      -0.00055917      -0.09775032
C        2.84055000       0.00000000      13.67736648      -0.00056012      -0.00028885       0.23102599
C        0.00000000       0.00000000      10.31053081      -0.07566294      -0.13120815      -0.24882478
C       -0.00002000       2.45999000      10.31052938      -0.07395962       0.12979726      -0.24884139
C        2.13042000       1.22997000      10.31053377       0.15043415      -0.00018816      -0.24880525
C        3.55067000       1.22997000      10.31059172      -0.15327145       0.00075391      -0.24868834
C        1.42025000       0.00000000      10.31059583       0.07735863      -0.13271469      -0.24865317
C        1.42030000       2.45995000      10.31059416       0.07503630       0.13357401      -0.24869105
Li       0.71010621       1.23001044      11.87439025       0.00008208      -0.00000593       0.04343808
13
Lattice="4.260799885 0.0 0.0 -2.130399942 3.689960941 0.0 0.0 0.0 24.0" Properties=species:S:1:pos:R:3:forces:R:3 energy=-113.2229232788086 stress="-0.012286419980227947 5.302280442265328e-06 -7.351121666943072e-07 5.302280442265328e-06 -0.012291930615901947 1.6384716161610413e-07 -7.351121666943072e-07 1.6384716161610413e-07 -0.011745257303118706" free_energy=-113.2229232788086 pbc="T T T"
C        0.00000000       0.00000000      13.71680408      -0.06604952      -0.11427472       0.25904670
C       -0.00002000       2.45999000      13.71680256      -0.06563367       0.11482362       0.25904101
C        2.13042000       1.22997000      13.71680512       0.13091265       0.00098928       0.25907749
C        2.84053000       2.45999000      13.68427992      -0.00038287      -0.00069886       0.34961984
C        0.71010000       1.23001000      13.82571104       0.00169582      -0.00055696      -0.33267725
C        2.84055000       0.00000000      13.68427951      -0.00055666      -0.00028988       0.34961134
C        0.00000000       0.00000000      10.30029379      -0.08065331      -0.13985011      -0.25380939
C       -0.00002000       2.45999000      10.30029153      -0.07894816       0.13843624      -0.25380412
C        2.13042000       1.22997000      10.30029788       0.16041832      -0.00018800      -0.25380713
C        3.55067000       1.22997000      10.30035980      -0.16325995       0.00075496      -0.25263891
C        1.42025000       0.00000000      10.30036580       0.08235675      -0.14137334      -0.25263208
C        1.42030000       2.45995000      10.30036276       0.08003160       0.14223129      -0.25264865
Li       0.71010989       1.23001034      11.85334622       0.00006927      -0.00000379       0.37562153
13
Lattice="4.260799885 0.0 0.0 -2.130399942 3.689960941 0.0 0.0 0.0 24.0" Properties=species:S:1:pos:R:3:forces:R:3 energy=-113.2643814086914 stress="-0.012060560286045074 5.276594492897857e-06 -6.306672730715945e-07 5.276594492897857e-06 -0.012066027149558067 9.903104114528105e-08 -6.306672730715945e-07 9.903104114528105e-08 -0.009697141125798225" free_energy=-113.2643814086914 pbc="T T T"
C        0.00000000       0.00000000      13.74790025      -0.06254153      -0.10819931       0.07941768
C       -0.00002000       2.45999000      13.74789781      -0.06211947       0.10874301       0.07941119
C        2.13042000       1.22997000      13.74790395       0.12390742       0.00098667       0.07941677
C        2.84053000       2.45999000      13.70381621      -0.00038389      -0.00069307       0.49844760
C        0.71010000       1.23001000      13.85075171       0.00168432      -0.00055323      -0.45972198
C        2.84055000       0.00000000      13.70381525      -0.00055817      -0.00029049       0.49845031
C        0.00000000       0.00000000      10.27826986      -0.08253650      -0.14310852      -0.24407867
C       -0.00002000       2.45999000      10.27826657      -0.08083233       0.14169481      -0.24407233
C        2.13042000       1.22997000      10.27827565       0.16419737      -0.00018770      -0.24411678
C        3.55067000       1.22997000      10.27837871      -0.16680622       0.00075419      -0.24234208
C        1.42025000       0.00000000      10.27838764       0.08413720      -0.14446069      -0.24239725
C        1.42030000       2.45995000      10.27838235       0.08181252       0.14531517      -0.24237996
Li       0.71011723       1.23001016      11.82795408       0.00003905      -0.00000063       0.68396562
13
Lattice="4.260799885 0.0 0.0 -2.130399942 3.689960941 0.0 0.0 0.0 24.0" Properties=species:S:1:pos:R:3:forces:R:3 energy=-113.32869720458984 stress="-0.01155499741435051 5.250355570751708e-06 -4.1055565702663444e-07 5.250355570751708e-06 -0.011560426093637943 7.74933717195836e-09 -4.1055565702663444e-07 7.74933717195836e-09 -0.0069219148717820644" free_energy=-113.32869720458984 pbc="T T T"
C        0.00000000       0.00000000      13.80046391      -0.06547435      -0.11328104      -0.15260613
C       -0.00002000       2.45999000      13.80045976      -0.06505691       0.11382077      -0.15259102
C        2.13042000       1.22997000      13.80047182       0.12978397       0.00098022      -0.15266833
C        2.84053000       2.45999000      13.74748265      -0.00037840      -0.00068589       0.62149620
C        0.71010000       1.23001000      13.88257564       0.00167185      -0.00055240      -0.40323827
C        2.84055000       0.00000000      13.74748098      -0.00055287      -0.00028641       0.62149870
C        0.00000000       0.00000000      10.23653171      -0.07583731      -0.13149974      -0.20746648
C       -0.00002000       2.45999000      10.23652660      -0.07414201       0.13009052      -0.20743525
C        2.13042000       1.22997000      10.23653916       0.15082422      -0.00018432      -0.20755689
C        3.55067000       1.22997000      10.23674247      -0.15292822       0.00074854      -0.20733020
C        1.42025000       0.00000000      10.23675469       0.07720695      -0.13247037      -0.20745066
C        1.42030000       2.45995000      10.23674621       0.07489108       0.13331431      -0.20739666
Li       0.71013008       1.23000985      11.80122448      -0.00000788       0.00000589       0.86274493
13
Lattice="4.260799885 0.0 0.0 -2.130399942 3.689960941 0.0 0.0 0.0 24.0" Properties=species:S:1:pos:R:3:forces:R:3 energy=-113.40943145751953 stress="-0.010794286616146564 5.22366053701262e-06 -7.163353643591108e-08 5.22366053701262e-06 -0.010799647308886051 -7.695567205701082e-08 -7.163353643591108e-08 -7.695567205701082e-08 -0.004071008879691362" free_energy=-113.40943145751953 pbc="T T T"
C        0.00000000       0.00000000      13.87168626      -0.07399984      -0.12805255      -0.31813642
C       -0.00002000       2.45999000      13.87168024      -0.07357929       0.12859057      -0.31809488
C        2.13042000       1.22997000      13.87169864       0.14684030       0.00097953      -0.31825584
C        2.84053000       2.45999000      13.82213722      -0.00037639      -0.00067882       0.60167307
C        0.71010000       1.23001000      13.91867361       0.00165990      -0.00054479      -0.15930255
C        2.84055000       0.00000000      13.82213451      -0.00054782      -0.00029857       0.60168803
C        0.00000000       0.00000000      10.17316505      -0.05663621      -0.09823563      -0.14454031
C       -0.00002000       2.45999000      10.17315810      -0.05495879       0.09683162      -0.14446875
C        2.13042000       1.22997000      10.17317274       0.11245275      -0.00018125      -0.14466359
C        3.55067000       1.22997000      10.17349134      -0.11397216       0.00074136      -0.14878014
C        1.42025000       0.00000000      10.17350565       0.05773574      -0.09876578      -0.14896077
C        1.42030000       2.45995000      10.17349377       0.05543759       0.09959741      -0.14885435
Li       0.71014798       1.23000954      11.78200303      -0.00005567       0.00001661       0.79069668
13
Lattice="4.260799885 0.0 0.0 -2.130399942 3.689960941 0.0 0.0 0.0 24.0" Properties=species:S:1:pos:R:3:forces:R:3 energy=-113.47574615478516 stress="-0.009937248192727566 5.211454663367476e-06 2.3624986056347552e-07 5.211454663367476e-06 -0.00994254369288683 -1.034174985647951e-07 2.3624986056347552e-07 -1.034174985647951e-07 -0.0017337738536298275" free_energy=-113.47574615478516 pbc="T T T"
C        0.00000000       0.00000000      13.94356687      -0.08283513      -0.14336149      -0.29982293
C       -0.00002000       2.45999000      13.94355981      -0.08241590       0.14390311      -0.29975277
C        2.13042000       1.22997000      13.94358172       0.16451505       0.00098278      -0.29998329
C        2.84053000       2.45999000      13.91448518      -0.00036920      -0.00067448       0.36422259
C        0.71010000       1.23001000      13.95370893       0.00164835      -0.00054253       0.11873446
C        2.84055000       0.00000000      13.91448171      -0.00054687      -0.00031173       0.36425138
C        0.00000000       0.00000000      10.10138065      -0.03166920      -0.05498278      -0.07502750
C       -0.00002000       2.45999000      10.10137335      -0.03001337       0.05359081      -0.07496186
C        2.13042000       1.22997000      10.10138618       0.06253953      -0.00017759      -0.07514675
C        3.55067000       1.22997000      10.10170322      -0.06347365       0.00073028      -0.08153765
C        1.42025000       0.00000000      10.10171616       0.03248456      -0.05504928      -0.08171703
C        1.42030000       2.45995000      10.10170284       0.03020839       0.05587348      -0.08158976
Li       0.71016630       1.23000957      11.77735366      -0.00007265       0.00001967       0.52233124
13
Lattice="4.260799885 0.0 0.0 -2.130399942 3.689960941 0.0 0.0 0.0 24.0" Properties=species:S:1:pos:R:3:forces:R:3 energy=-113.49808502197266 stress="-0.009423230774700642 5.19464583703666e-06 3.5708100654119335e-07 5.19464583703666e-06 -0.009428504854440689 -7.912344557325923e-08 3.5708100654119335e-07 -7.912344557325923e-08 -0.0005450058961287141" free_energy=-113.49808502197266 pbc="T T T"
C        0.00000000       0.00000000      13.97787354      -0.08801921      -0.15234375      -0.15921827
C       -0.00002000       2.45999000      13.97786732      -0.08760138       0.15289317      -0.15915433
C        2.13042000       1.22997000      13.97788681       0.17488740       0.00098281      -0.15937895
C        2.84053000       2.45999000      13.97032716      -0.00036395      -0.00066954       0.08881136
C        0.71010000       1.23001000      13.97294629       0.00164192      -0.00054300       0.21313469
C        2.84055000       0.00000000      13.97032384      -0.00055103      -0.00032334       0.08885361
C        0.00000000       0.00000000      10.06108442      -0.01757458      -0.03056744      -0.03687431
C       -0.00002000       2.45999000      10.06107802      -0.01592964       0.02918362      -0.03680530
C        2.13042000       1.22997000      10.06108668       0.03435434      -0.00017569      -0.03694867
C        3.55067000       1.22997000      10.06127771      -0.03489875       0.00072144      -0.04012348
C        1.42025000       0.00000000      10.06128676       0.01819156      -0.03030342      -0.04027084
C        1.42030000       2.45995000      10.06127495       0.01592809       0.03112467      -0.04014850
Li       0.71017497       1.23000992      11.78568684      -0.00006483       0.00002044       0.31812298
13
Lattice="4.260799885 0.0 0.0 -2.130399942 3.689960941 0.0 0.0 0.0 24.0" Properties=species:S:1:pos:R:3:forces:R:3 energy=-113.50336456298828 stress="-0.009300594218075275 5.193295692151878e-06 3.3596890602893836e-07 5.193295692151878e-06 -0.009305886924266815 -4.137189790753837e-08 3.3596890602893836e-07 -4.137189790753837e-08 -0.0002635217970237136" free_energy=-113.50336456298828 pbc="T T T"
C        0.00000000       0.00000000      13.97974328      -0.09017654      -0.15608676      -0.04871183
C       -0.00002000       2.45999000      13.97973854      -0.08976559       0.15663138      -0.04866737
C        2.13042000       1.22997000      13.97975300       0.17920358       0.00098401      -0.04883052
C        2.84053000       2.45999000      13.98234196      -0.00036424      -0.00066230      -0.05400177
C        0.71010000       1.23001000      13.97709919       0.00164121      -0.00054538       0.17718454
C        2.84055000       0.00000000      13.98233952      -0.00054536      -0.00032436      -0.05397905
C        0.00000000       0.00000000      10.05356659      -0.01333400      -0.02322415      -0.02544926
C       -0.00002000       2.45999000      10.05356179      -0.01169435       0.02184339      -0.02540167
C        2.13042000       1.22997000      10.05356660       0.02587283      -0.00017797      -0.02549736
C        3.55067000       1.22997000      10.05366718      -0.02625016       0.00071957      -0.02579530
C        1.42025000       0.00000000      10.05367238       0.01386391      -0.02280761      -0.02589428
C        1.42030000       2.45995000      10.05366337       0.01160349       0.02363306      -0.02580246
Li       0.71017499       1.23001039      11.79728693      -0.00005475       0.00001733       0.23084632
13
Lattice="4.260799885 0.0 0.0 -2.130399942 3.689960941 0.0 0.0 0.0 24.0" Properties=species:S:1:pos:R:3:forces:R:3 energy=-113.50666809082031 stress="-0.009296241216361523 5.173188128537731e-06 2.6718603862718737e-07 5.173188128537731e-06 -0.009301532059907913 4.472950454470492e-09 2.6718603862718737e-07 4.472950454470492e-09 -0.00025996635667979717" free_energy=-113.50666809082031 pbc="T T T"
C        0.00000000       0.00000000      13.97094223      -0.09128051      -0.15799540       0.04195860
C       -0.00002000       2.45999000      13.97093941      -0.09086876       0.15853928       0.04198271
C        2.13042000       1.22997000      13.97094709       0.18140855       0.00097935       0.04189618
C        2.84053000       2.45999000      13.97882158      -0.00036145      -0.00066217      -0.13903838
C        0.71010000       1.23001000      13.97660266       0.00164156      -0.00054287       0.10635569
C        2.84055000       0.00000000      13.97882016      -0.00054649      -0.00032200      -0.13901494
C        0.00000000       0.00000000      10.05667812      -0.01127006      -0.01965252      -0.01978281
C       -0.00002000       2.45999000      10.05667537      -0.00963342       0.01827410      -0.01975764
C        2.13042000       1.22997000      10.05667584       0.02174157      -0.00017739      -0.01980299
C        3.55067000       1.22997000      10.05671644      -0.02199708       0.00071881      -0.01791486
C        1.42025000       0.00000000      10.05671722       0.01173343      -0.01911698      -0.01795340
C        1.42030000       2.45995000      10.05671203       0.00947573       0.01994374      -0.01791456
Li       0.71017164       1.23001103      11.81275219      -0.00004320       0.00001407       0.15898651
13
Lattice="4.260799885 0.0 0.0 -2.130399942 3.689960941 0.0 0.0 0.0 24.0" Properties=species:S:1:pos:R:3:forces:R:3 energy=-113.50901794433594 stress="-0.00933165941387415 5.181601409276482e-06 1.7029667276347027e-07 5.181601409276482e-06 -0.009336967952549458 2.9494019671005844e-08 1.7029667276347027e-07 2.9494019671005844e-08 -0.00039176392601802945" free_energy=-113.50901794433594 pbc="T T T"
C        0.00000000       0.00000000      13.95958150      -0.09136579      -0.15813786       0.08707070
C       -0.00002000       2.45999000      13.95958069      -0.09095258       0.15868622       0.08707231
C        2.13042000       1.22997000      13.95958132       0.18157347       0.00098221       0.08706674
C        2.84053000       2.45999000      13.96746381      -0.00036242      -0.00066568      -0.15389192
C        0.71010000       1.23001000      13.97486713       0.00164485      -0.00054232       0.04370110
C        2.84055000       0.00000000      13.96746375      -0.00054449      -0.00032615      -0.15389003
C        0.00000000       0.00000000      10.06370853      -0.01007095      -0.01757851      -0.01602945
C       -0.00002000       2.45999000      10.06370788      -0.00843658       0.01620360      -0.01603726
C        2.13042000       1.22997000      10.06370420       0.01933935      -0.00017817      -0.01602235
C        3.55067000       1.22997000      10.06373506      -0.01950913       0.00071732      -0.01337819
C        1.42025000       0.00000000      10.06373179       0.01048560      -0.01695291      -0.01336630
C        1.42030000       2.45995000      10.06373028       0.00823035       0.01778190      -0.01335987
Li       0.71016689       1.23001179      11.82914439      -0.00003155       0.00001046       0.09106462
13
Lattice="4.260799885 0.0 0.0 -2.130399942 3.689960941 0.0 0.0 0.0 24.0" Properties=species:S:1:pos:R:3:forces:R:3 energy=-113.51073455810547 stress="-0.009339374490082264 5.190478987060487e-06 8.924762795459174e-08 5.190478987060487e-06 -0.009344642981886864 4.007479148526727e-08 8.924762795459174e-08 4.007479148526727e-08 -0.0004629540489986539" free_energy=-113.51073455810547 pbc="T T T"
C        0.00000000       0.00000000      13.95375512      -0.09113391      -0.15773682       0.07734200
C       -0.00002000       2.45999000      13.95375578      -0.09072010       0.15828480       0.07733188
C        2.13042000       1.22997000      13.95375120       0.18110992       0.00098238       0.07738341
C        2.84053000       2.45999000      13.95751234      -0.00036389      -0.00066700      -0.10813114
C        0.71010000       1.23001000      13.97566482       0.00164780      -0.00054255       0.01343301
C        2.84055000       0.00000000      13.95751323      -0.00054633      -0.00032492      -0.10814054
C        0.00000000       0.00000000      10.06762799      -0.00888516      -0.01553068      -0.01159219
C       -0.00002000       2.45999000      10.06762866      -0.00725454       0.01415665      -0.01161134
C        2.13042000       1.22997000      10.06762228       0.01696704      -0.00017840      -0.01155879
C        3.55067000       1.22997000      10.06769136      -0.01709245       0.00071621      -0.00976300
C        1.42025000       0.00000000      10.06768534       0.00927408      -0.01485214      -0.00970328
C        1.42030000       2.45995000      10.06768671       0.00702091       0.01568348      -0.00973897
Li       0.71016304       1.23001255      11.84210551      -0.00002314       0.00000911       0.03474891
13
Lattice="4.260799885 0.0 0.0 -2.130399942 3.689960941 0.0 0.0 0.0 24.0" Properties=species:S:1:pos:R:3:forces:R:3 energy=-113.51191711425781 stress="-0.009294050745666027 5.181702817935729e-06 6.274604658074168e-08 5.181702817935729e-06 -0.00929933786392212 3.008397087000958e-08 6.274604658074168e-08 3.008397087000958e-08 -0.0003471693489700556" free_energy=-113.51191711425781 pbc="T T T"
C        0.00000000       0.00000000      13.95646490      -0.09132381      -0.15806206       0.03016162
C       -0.00002000       2.45999000      13.95646636      -0.09091087       0.15861097       0.03012963
C        2.13042000       1.22997000      13.95645932       0.18148321       0.00097988       0.03022517
C        2.84053000       2.45999000      13.95441044      -0.00035978      -0.00066338      -0.03356778
C        0.71010000       1.23001000      13.98071193       0.00164776      -0.00054476       0.01074196
C        2.84055000       0.00000000      13.95441178      -0.00054404      -0.00032485      -0.03357843
C        0.00000000       0.00000000      10.06515147      -0.00736308      -0.01289533      -0.00556098
C       -0.00002000       2.45999000      10.06515271      -0.00573426       0.01152224      -0.00559014
C        2.13042000       1.22997000      10.06514544       0.01392160      -0.00017832      -0.00552490
C        3.55067000       1.22997000      10.06527334      -0.01403537       0.00071536      -0.00543913
C        1.42025000       0.00000000      10.06526661       0.00774405      -0.01220142      -0.00537656
C        1.42030000       2.45995000      10.06526912       0.00549326       0.01303314      -0.00542198
Li       0.71016120       1.23001329      11.84981691      -0.00001888       0.00000862      -0.00119850
13
Lattice="4.260799885 0.0 0.0 -2.130399942 3.689960941 0.0 0.0 0.0 24.0" Properties=species:S:1:pos:R:3:forces:R:3 energy=-113.51227569580078 stress="-0.009233402088284492 5.188843260839349e-06 5.5035542345649446e-08 5.188843260839349e-06 -0.00923867616802454 1.9292913933099953e-08 5.5035542345649446e-08 1.9292913933099953e-08 -0.0001468995469622314" free_energy=-113.51227569580078 pbc="T T T"
C        0.00000000       0.00000000      13.96320926      -0.09181444      -0.15891211      -0.00299824
C       -0.00002000       2.45999000      13.96321027      -0.09140186       0.15946442      -0.00302056
C        2.13042000       1.22997000      13.96320445       0.18247014       0.00098286      -0.00294668
C        2.84053000       2.45999000      13.95841875      -0.00036201      -0.00066635       0.00432436
C        0.71010000       1.23001000      13.98633148       0.00164456      -0.00054651       0.01766434
C        2.84055000       0.00000000      13.95842003      -0.00054371      -0.00032625       0.00431366
C        0.00000000       0.00000000      10.05936608      -0.00625407      -0.01097364      -0.00137430
C       -0.00002000       2.45999000      10.05936689      -0.00462640       0.00960167      -0.00139245
C        2.13042000       1.22997000      10.05936053       0.01170475      -0.00017829      -0.00133803
C        3.55067000       1.22997000      10.05951156      -0.01182206       0.00071456      -0.00208630
C        1.42025000       0.00000000      10.05950573       0.00663716      -0.01028521      -0.00203452
C        1.42030000       2.45995000      10.05950768       0.00438736       0.01111580      -0.00206831
Li       0.71016150       1.23001371      11.85058761      -0.00001922       0.00000895      -0.00704306
13
Lattice="4.260799885 0.0 0.0 -2.130399942 3.689960941 0.0 0.0 0.0 24.0" Properties=species:S:1:pos:R:3:forces:R:3 energy=-113.5123291015625 stress="-0.009204976260662079 5.187509032111848e-06 6.733436208605781e-08 5.187509032111848e-06 -0.009210247546434402 1.0609282341533799e-08 6.733436208605781e-08 1.0609282341533799e-08 -4.7116762289078906e-05" free_energy=-113.5123291015625 pbc="T T T"
C        0.00000000       0.00000000      13.96647156      -0.09201494      -0.15925804      -0.00694495
C       -0.00002000       2.45999000      13.96647210      -0.09160070       0.15980881      -0.00695704
C        2.13042000       1.22997000      13.96646783       0.18287019       0.00098155      -0.00690428
C        2.84053000       2.45999000      13.96161416      -0.00036248      -0.00066705       0.00583377
C        0.71010000       1.23001000      13.98895708       0.00164381      -0.00054514       0.01575263
C        2.84055000       0.00000000      13.96161522      -0.00054321      -0.00032422       0.00582292
C        0.00000000       0.00000000      10.05636942      -0.00583306      -0.01024364      -0.00005361
C       -0.00002000       2.45999000      10.05636984      -0.00420503       0.00887157      -0.00006041
C        2.13042000       1.22997000      10.05636455       0.01086193      -0.00017838      -0.00002815
C        3.55067000       1.22997000      10.05650714      -0.01097532       0.00071429      -0.00062333
C        1.42025000       0.00000000      10.05650234       0.00621372      -0.00955217      -0.00058295
C        1.42030000       2.45995000      10.05650357       0.00396459       0.01038257      -0.00060573
Li       0.71016180       1.23001392      11.84978552      -0.00001981       0.00001008      -0.00464886
13