13
Lattice="4.260799885 0.0 0.0 -2.130399942 3.689960941 0.0 0.0 0.0 24.0" Properties=species:S:1:pos:R:3:forces:R:3 energy=-112.76708984375 stress="-0.011803277768194675 5.441313078335952e-06 -9.637729903033687e-08 5.441313078335952e-06 -0.011809444054961205 3.679094007225103e-08 -9.637729903033687e-08 3.679094007225103e-08 -0.02318165823817253" free_energy=-112.76708984375 pbc="T T T"
C        0.00000000       0.00000000      13.67500000      -0.11355936      -0.19658552       0.17616680
C       -0.00002000       2.45999000      13.67500000      -0.11318037       0.19720460       0.17616042
C        2.13042000       1.22997000      13.67500000       0.22575539       0.00099295       0.17610559
C        2.84053000       2.45999000      13.67500000      -0.00038334      -0.00072191       0.00403929
C        0.71010000       1.23001000      13.67500000       0.00190671      -0.00060405       3.77201414
C        2.84055000       0.00000000      13.67500000      -0.00056638      -0.00029736       0.00403745
C        0.00000000       0.00000000      10.32500000      -0.03737066      -0.06489129      -0.15416743
C       -0.00002000       2.45999000      10.32500000      -0.03570471       0.06349710      -0.15418020
C        2.13042000       1.22997000      10.32500000       0.07387606      -0.00018156      -0.15412599
C        3.55067000       1.22997000      10.32500000      -0.07453643       0.00073381      -0.15043114
C        1.42025000       0.00000000      10.32500000       0.03798543      -0.06453245      -0.15037307
C        1.42030000       2.45995000      10.32500000       0.03570047       0.06537147      -0.15039642
Li       0.71010000       1.23001000      12.00000000       0.00007698       0.00001426      -3.39484930
13
Lattice="4.260799885 0.0 0.0 -2.130399942 3.689960941 0.0 0.0 0.0 24.0" Properties=species:S:1:pos:R:3:forces:R:3 energy=-113.12640380859375 stress="-0.012601683847606182 5.293886260915315e-06 -9.94592483039014e-07 5.293886260915315e-06 -0.012607050128281116 3.3494424656055344e-07 -9.94592483039014e-07 3.3494424656055344e-07 -0.01232149638235569" free_energy=-113.12640380859375 pbc="T T T"
C        0.00000000       0.00000000      13.68271965      -0.03888068      -0.06721053       0.78084159
C       -0.00002000       2.45999000      13.68271937      -0.03845149       0.06775787       0.78081274
C        2.13042000       1.22997000      13.68271696       0.07660687       0.00099857       0.78092808
C        2.84053000       2.45999000      13.67517700      -0.00039124      -0.00071002      -0.03622941
C        0.71010000       1.23001000      13.84029006       0.00167000      -0.00055491      -1.08939898
C        2.84055000       0.00000000      13.67517692      -0.00056855      -0.00028953      -0.03623530
C        0.00000000       0.00000000      10.31824437      -0.08933626      -0.15489227      -0.28575337
C       -0.00002000       2.45999000      10.31824381      -0.08762283       0.15347624      -0.28578657
C        2.13042000       1.22997000      10.31824618       0.17776430      -0.00019040      -0.28570890
C        3.55067000       1.22997000      10.31840809      -0.18158568       0.00076082      -0.29225245
C        1.42025000       0.00000000      10.31841064       0.09151369      -0.15722507      -0.29218781
C        1.42030000       2.45995000      10.31840961       0.08918013       0.15809120      -0.29223323
Li       0.71010337       1.23001062      11.85123734       0.00010162      -0.00001190       0.55320376
13
Lattice="4.260799885 0.0 0.0 -2.130399942 3.689960941 0.0 0.0 0.0 24.0" Properties=species:S:1:pos:R:3:forces:R:3 energy=-113.17928314208984 stress="-0.012515880167484283 5.25955965713365e-06 -8.83595248524216e-07 5.25955965713365e-06 -0.012521344237029552 1.3275921162403392e-07 -8.83595248524216e-07 1.3275921162403392e-07 -0.010682047344744205" free_energy=-113.17928314208984 pbc="T T T"
C        0.00000000       0.00000000      13.72892578      -0.05083347      -0.08791879       0.08919275
C       -0.00002000       2.45999000      13.72892379      -0.05040818       0.08845016       0.08918072
C        2.13042000       1.22997000      13.72892665       0.10049127       0.00098383       0.08923519
C        2.84053000       2.45999000      13.67326857      -0.00038741      -0.00068973       0.64659345
C        0.71010000       1.23001000      13.85327741       0.00168558      -0.00055250      -0.76108962
C        2.84055000       0.00000000      13.67326813      -0.00055890      -0.00027976       0.64658225
C        0.00000000       0.00000000      10.29960584      -0.09881812      -0.17131293      -0.29654345
C       -0.00002000       2.45999000      10.29960321      -0.09710215       0.16989382      -0.29655290
C        2.13042000       1.22997000      10.29961089       0.19674127      -0.00019021      -0.29656020
C        3.55067000       1.22997000      10.29948527      -0.19970730       0.00076094      -0.28977281
C        1.42025000       0.00000000      10.29949248       0.10058202      -0.17293680      -0.28978038
C        1.42030000       2.45995000      10.29948851       0.09824602       0.17379946      -0.28978163
Li       0.71011043       1.23001025      11.81612349       0.00006960      -0.00000738       0.95929670
13
Lattice="4.260799885 0.0 0.0 -2.130399942 3.689960941 0.0 0.0 0.0 24.0" Properties=species:S:1:pos:R:3:forces:R:3 energy=-113.29489135742188 stress="-0.011682117357850075 5.2845307436655276e-06 -3.293703798590286e-07 5.2845307436655276e-06 -0.011687635444104671 2.854769398652479e-08 -3.293703798590286e-07 2.854769398652479e-08 -0.011076104827225208" free_energy=-113.29489135742188 pbc="T T T"
C        0.00000000       0.00000000      13.74859402      -0.08891480      -0.15388590      -0.00296196
C       -0.00002000       2.45999000      13.74859070      -0.08850589       0.15444262      -0.00293788
C        2.13042000       1.22997000      13.74859896       0.17662923       0.00098550      -0.00300451
C        2.84053000       2.45999000      13.71890460      -0.00038046      -0.00069798       0.35712454
C        0.71010000       1.23001000      13.80265141       0.00170867      -0.00055580       0.56410336
C        2.84055000       0.00000000      13.71890326      -0.00055444      -0.00029422       0.35712990
C        0.00000000       0.00000000      10.27306031      -0.06099897      -0.10580494      -0.18547048
C       -0.00002000       2.45999000      10.27305641      -0.05930912       0.10439816      -0.18544556
C        2.13042000       1.22997000      10.27306510       0.12113184      -0.00018236      -0.18551403
C        3.55067000       1.22997000      10.27334155      -0.12312515       0.00074590      -0.18731809
C        1.42025000       0.00000000      10.27334955       0.06229432      -0.10663639      -0.18737498
C        1.42030000       2.45995000      10.27334465       0.05998544       0.10747916      -0.18735653
Li       0.71011743       1.23000961      11.87453951       0.00003934       0.00000643      -0.15097384
13
Lattice="4.260799885 0.0 0.0 -2.130399942 3.689960941 0.0 0.0 0.0 24.0" Properties=species:S:1:pos:R:3:forces:R:3 energy=-113.3337173461914 stress="-0.011372379027307034 5.279758624965325e-06 -3.9199295542857726e-07 5.279758624965325e-06 -0.011377830989658833 1.5842657319353748e-07 -3.9199295542857726e-07 1.5842657319353748e-07 -0.0094120092689991" free_energy=-113.3337173461914 pbc="T T T"
C        0.00000000       0.00000000      13.75241741      -0.07969395      -0.13791743       0.42379296
C       -0.00002000       2.45999000      13.75241552      -0.07928337       0.13847432       0.42379844
C        2.13042000       1.22997000      13.75242014       0.15820689       0.00098754       0.42379326
C        2.84053000       2.45999000      13.75377576      -0.00037859      -0.00069537      -0.11539397
C        0.71010000       1.23001000      13.83255855       0.00169327      -0.00055300       0.02107926
C        2.84055000       0.00000000      13.75377461      -0.00055789      -0.00030304      -0.11538528
C        0.00000000       0.00000000      10.25436659      -0.05270586      -0.09144111      -0.15977541
C       -0.00002000       2.45999000      10.25436421      -0.05102228       0.09003828      -0.15976165
C        2.13042000       1.22997000      10.25436821       0.10454943      -0.00018206      -0.15977080
C        3.55067000       1.22997000      10.25459828      -0.10602897       0.00074358      -0.16048245
C        1.42025000       0.00000000      10.25460239       0.05374419      -0.09183228      -0.16048995
C        1.42030000       2.45995000      10.25459862       0.05144020       0.09267391      -0.16048120
Li       0.71012168       1.23000994      11.87573975       0.00003706       0.00000669      -0.10092334
13
Lattice="4.260799885 0.0 0.0 -2.130399942 3.689960941 0.0 0.0 0.0 24.0" Properties=species:S:1:pos:R:3:forces:R:3 energy=-113.44574737548828 stress="-0.010231663472950459 5.2088507800363e-06 -2.9785329047626874e-07 5.2088507800363e-06 -0.010237019509077072 -1.3907361484655212e-08 -2.9785329047626874e-07 -1.3907361484655212e-08 -0.003387307981029153" free_energy=-113.44574737548828 pbc="T T T"
C        0.00000000       0.00000000      13.87766621      -0.08430303      -0.14590377      -0.37956896
C       -0.00002000       2.45999000      13.87766993      -0.08389494       0.14645524      -0.37963378
C        2.13042000       1.22997000      13.87766270       0.16742697       0.00098335      -0.37950969
C        2.84053000       2.45999000      13.82245816      -0.00036316      -0.00067028       0.67929006
C        0.71010000       1.23001000      13.92384283       0.00167823      -0.00055165       0.07915959
C        2.84055000       0.00000000      13.82245992      -0.00054945      -0.00031741       0.67926162
C        0.00000000       0.00000000      10.15776760      -0.02893779      -0.05027034      -0.07834993
C       -0.00002000       2.45999000      10.15777328      -0.02728897       0.04889144      -0.07843341
C        2.13042000       1.22997000      10.15776141       0.05704862      -0.00018121      -0.07830219
C        3.55067000       1.22997000      10.15766679      -0.05725333       0.00072718      -0.06803733
C        1.42025000       0.00000000      10.15765771       0.02935223      -0.04960905      -0.06792271
C        1.42030000       2.45995000      10.15765953       0.02708087       0.05045063      -0.06797373
Li       0.71014383       1.23001268      11.85195390       0.00000372      -0.00000424       0.14002046
13
Lattice="4.260799885 0.0 0.0 -2.130399942 3.689960941 0.0 0.0 0.0 24.0" Properties=species:S:1:pos:R:3:forces:R:3 energy=-113.50243377685547 stress="-0.009453636594116688 5.166083155927481e-06 -1.6080662135209423e-07 5.166083155927481e-06 -0.009458957239985466 5.361003019288546e-08 -1.6080662135209423e-07 5.361003019288546e-08 -0.0004393367562443018" free_energy=-113.50243377685547 pbc="T T T"
C        0.00000000       0.00000000      13.94119954      -0.08101112      -0.14019631      -0.00985467
C       -0.00002000       2.45999000      13.94120269      -0.08059784       0.14074606      -0.00991435
C        2.13042000       1.22997000      13.94119575       0.16085611       0.00097954      -0.00979524
C        2.84053000       2.45999000      13.92068588      -0.00036183      -0.00066408       0.18008173
C        0.71010000       1.23001000      13.99556159       0.00165386      -0.00054751      -0.34078297
C        2.84055000       0.00000000      13.92068772      -0.00054347      -0.00032187       0.18005762
C        0.00000000       0.00000000      10.08226030      -0.01122956      -0.01959406      -0.01635395
C       -0.00002000       2.45999000      10.08226585      -0.00959704       0.01822060      -0.01642945
C        2.13042000       1.22997000      10.08225187       0.02165466      -0.00017747      -0.01628640
C        3.55067000       1.22997000      10.08265547      -0.02205179       0.00071894      -0.02400799
C        1.42025000       0.00000000      10.08264504       0.01174975      -0.01913851      -0.02389984
C        1.42030000       2.45995000      10.08264725       0.00949580       0.01997252      -0.02394034
Li       0.71016012       1.23001437      11.84474101      -0.00001728       0.00000215       0.13112603
13
Lattice="4.260799885 0.0 0.0 -2.130399942 3.689960941 0.0 0.0 0.0 24.0" Properties=species:S:1:pos:R:3:forces:R:3 energy=-113.51012420654297 stress="-0.009439803659915924 5.185223471926292e-06 2.4802806919410614e-08 5.185223471926292e-06 -0.009445066563785076 3.10936663083794e-08 2.4802806919410614e-08 3.10936663083794e-08 -0.0008354697492904961" free_energy=-113.51012420654297 pbc="T T T"
C        0.00000000       0.00000000      13.94049564      -0.08938122      -0.15469827       0.01402045
C       -0.00002000       2.45999000      13.94049452      -0.08896595       0.15524696       0.01401786
C        2.13042000       1.22997000      13.94049609       0.17760366       0.00098143       0.01401811
C        2.84053000       2.45999000      13.93354886      -0.00036644      -0.00066863       0.02576406
C        0.71010000       1.23001000      13.97121995       0.00164830      -0.00054374      -0.01046385
C        2.84055000       0.00000000      13.93354898      -0.00054558      -0.00032191       0.02576341
C        0.00000000       0.00000000      10.08109217      -0.00979566      -0.01710792      -0.01779403
C       -0.00002000       2.45999000      10.08109232      -0.00816397       0.01573373      -0.01780370
C        2.13042000       1.22997000      10.08108855       0.01878620      -0.00017967      -0.01779123
C        3.55067000       1.22997000      10.08094061      -0.01867191       0.00071728      -0.00899957
C        1.42025000       0.00000000      10.08093791       0.01006415      -0.01621746      -0.00898972
C        1.42030000       2.45995000      10.08093722       0.00780964       0.01704995      -0.00899486
Li       0.71015889       1.23001452      11.85410715      -0.00002143       0.00000827      -0.00274679
13
Lattice="4.260799885 0.0 0.0 -2.130399942 3.689960941 0.0 0.0 0.0 24.0" Properties=species:S:1:pos:R:3:forces:R:3 energy=-113.51051330566406 stress="-0.009410819970071316 5.194192908675177e-06 3.680966997876567e-08 5.194192908675177e-06 -0.009416067972779274 2.9104262111445678e-08 3.680966997876567e-08 2.9104262111445678e-08 -0.0008079037652350962" free_energy=-113.51051330566406 pbc="T T T"
C        0.00000000       0.00000000      13.94386122      -0.09084707      -0.15724435       0.01403052
C       -0.00002000       2.45999000      13.94385948      -0.09043377       0.15779218       0.01403939
C        2.13042000       1.22997000      13.94386111       0.18054041       0.00097888       0.01403465
C        2.84053000       2.45999000      13.93973347      -0.00036742      -0.00066738      -0.00511696
C        0.71010000       1.23001000      13.96870813       0.00164810      -0.00054463       0.05476345
C        2.84055000       0.00000000      13.93973344      -0.00054791      -0.00031943      -0.00511677
C        0.00000000       0.00000000      10.07682074      -0.00890443      -0.01557098       0.01589559
C       -0.00002000       2.45999000      10.07681858      -0.00727726       0.01419560       0.01590765
C        2.13042000       1.22997000      10.07681780       0.01700543      -0.00017946       0.01590268
C        3.55067000       1.22997000      10.07878028      -0.01857409       0.00071903      -0.03889586
C        1.42025000       0.00000000      10.07877994       0.01001320      -0.01612512      -0.03890270
C        1.42030000       2.45995000      10.07877802       0.00776053       0.01695755      -0.03889918
Li       0.71015374       1.23001651      11.85344779      -0.00001566       0.00000800      -0.01764247
13
Lattice="4.260799885 0.0 0.0 -2.130399942 3.689960941 0.0 0.0 0.0 24.0" Properties=species:S:1:pos:R:3:forces:R:3 energy=-113.51116180419922 stress="-0.009342540986835957 5.172789769858355e-06 8.199210199677509e-09 5.172789769858355e-06 -0.009347787126898766 5.8219129073222575e-08 8.199210199677509e-09 5.8219129073222575e-08 -0.0005729360273107886" free_energy=-113.51116180419922 pbc="T T T"
C        0.00000000       0.00000000      13.95235945      -0.09182434      -0.15893500       0.01393055
C       -0.00002000       2.45999000      13.95235794      -0.09141067       0.15947765       0.01393094
C        2.13042000       1.22997000      13.95235893       0.18249173       0.00098313       0.01393145
C        2.84053000       2.45999000      13.95050634      -0.00037046      -0.00067374      -0.03033163
C        0.71010000       1.23001000      13.97259129       0.00165028      -0.00054215       0.07790732
C        2.84055000       0.00000000      13.95050604      -0.00054521      -0.00031415      -0.03033124
C        0.00000000       0.00000000      10.07131812      -0.00890881      -0.01558187      -0.05057716
C       -0.00002000       2.45999000      10.07131350      -0.00728312       0.01421470      -0.05055131
C        2.13042000       1.22997000      10.07131755       0.01701375      -0.00017999      -0.05059500
C        3.55067000       1.22997000      10.06864009      -0.01500636       0.00071319       0.03360462
C        1.42025000       0.00000000      10.06864311       0.00822314      -0.01302413       0.03356621
C        1.42030000       2.45995000      10.06863943       0.00597419       0.01385803       0.03359002
Li       0.71014166       1.23002147      11.84944827      -0.00000404       0.00000439      -0.00807479
13
Lattice="4.260799885 0.0 0.0 -2.130399942 3.689960941 0.0 0.0 0.0 24.0" Properties=species:S:1:pos:R:3:forces:R:3 energy=-113.51200866699219 stress="-0.009266595356166363 5.1646520660142414e-06 -5.117280821309578e-08 5.1646520660142414e-06 -0.009271788410842419 7.911826571671554e-08 -5.117280821309578e-08 7.911826571671554e-08 -0.00024412486527580768" free_energy=-113.51200866699219 pbc="T T T"
C        0.00000000       0.00000000      13.96199418      -0.09174713      -0.15879390       0.00388677
C       -0.00002000       2.45999000      13.96199293      -0.09133133       0.15933961       0.00388585
C        2.13042000       1.22997000      13.96199332       0.18233599       0.00098197       0.00389638
C        2.84053000       2.45999000      13.95929198      -0.00037128      -0.00067837      -0.01902753
C        0.71010000       1.23001000      13.98210391       0.00164795      -0.00054330       0.04140002
C        2.84055000       0.00000000      13.95929145      -0.00054306      -0.00031007      -0.01901641
C        0.00000000       0.00000000      10.06211124      -0.00766304      -0.01343115      -0.02799338
C       -0.00002000       2.45999000      10.06210597      -0.00604544       0.01206743      -0.02796035
C        2.13042000       1.22997000      10.06211181       0.01451587      -0.00018142      -0.02801351
C        3.55067000       1.22997000      10.06073145      -0.01357665       0.00071403       0.01687862
C        1.42025000       0.00000000      10.06073513       0.00750577      -0.01176990       0.01686357
C        1.42030000       2.45995000      10.06073136       0.00526141       0.01260617       0.01688240
Li       0.71012909       1.23002684      11.84480540       0.00001060      -0.00000134       0.01831755
13
Lattice="4.260799885 0.0 0.0 -2.130399942 3.689960941 0.0 0.0 0.0 24.0" Properties=species:S:1:pos:R:3:forces:R:3 energy=-113.51216125488281 stress="-0.009261381812393665 5.182931545277825e-06 -6.022803944460975e-08 5.182931545277825e-06 -0.009266611188650131 6.597599622182315e-08 -6.022803944460975e-08 6.597599622182315e-08 -0.00020702982146758586" free_energy=-113.51216125488281 pbc="T T T"
C        0.00000000       0.00000000      13.96219104      -0.09143895      -0.15825729       0.00118586
C       -0.00002000       2.45999000      13.96218974      -0.09102290       0.15880439       0.00118467
C        2.13042000       1.22997000      13.96219066       0.18171763       0.00098649       0.00118616
C        2.84053000       2.45999000      13.95832827      -0.00037228      -0.00068121      -0.00596301
C        0.71010000       1.23001000      13.98420073       0.00164973      -0.00054451       0.01977976
C        2.84055000       0.00000000      13.95832831      -0.00054219      -0.00031150      -0.00596265
C        0.00000000       0.00000000      10.06069343      -0.00704276      -0.01235999       0.00662537
C       -0.00002000       2.45999000      10.06068984      -0.00542444       0.01099723       0.00664958
C        2.13042000       1.22997000      10.06069298       0.01327957      -0.00017996       0.00662631
C        3.55067000       1.22997000      10.06158631      -0.01403573       0.00071093      -0.01662265
C        1.42025000       0.00000000      10.06158923       0.00773044      -0.01216663      -0.01663671
C        1.42030000       2.45995000      10.06158642       0.00549062       0.01300456      -0.01663004
Li       0.71012963       1.23002677      11.84573315       0.00001096      -0.00000239       0.01857752
13
Lattice="4.260799885 0.0 0.0 -2.130399942 3.689960941 0.0 0.0 0.0 24.0" Properties=species:S:1:pos:R:3:forces:R:3 energy=-113.51223754882812 stress="-0.009252404794096947 5.166602932149544e-06 -7.839483373572875e-08 5.166602932149544e-06 -0.009257616475224495 7.193499840241202e-08 -7.839483373572875e-08 7.193499840241202e-08 -0.0001644033327465877" free_energy=-113.51223754882812 pbc="T T T"
C        0.00000000       0.00000000      13.96235744      -0.09118149      -0.15781385       0.00117290
C       -0.00002000       2.45999000      13.96235604      -0.09076934       0.15836465       0.00118069
C        2.13042000       1.22997000      13.96235729       0.18120876       0.00098329       0.00117356
C        2.84053000       2.45999000      13.95750240      -0.00037033      -0.00067841       0.00441069
C        0.71010000       1.23001000      13.98648378       0.00164642      -0.00054676      -0.00301857
C        2.84055000       0.00000000      13.95750269      -0.00054240      -0.00031193       0.00441048
C        0.00000000       0.00000000      10.06057827      -0.00684568      -0.01201660      -0.00310017
C       -0.00002000       2.45999000      10.06057710      -0.00522690       0.01065396      -0.00310835
C        2.13042000       1.22997000      10.06057746       0.01288044      -0.00017990      -0.00310019
C        3.55067000       1.22997000      10.06075376      -0.01308589       0.00071077      -0.00480616
C        1.42025000       0.00000000      10.06075536       0.00725717      -0.01134487      -0.00481108
C        1.42030000       2.45995000      10.06075342       0.00501869       0.01218372      -0.00481439
Li       0.71013063       1.23002657      11.84744514       0.00001045      -0.00000405       0.01441061
13
Lattice="4.260799885 0.0 0.0 -2.130399942 3.689960941 0.0 0.0 0.0 24.0" Properties=species:S:1:pos:R:3:forces:R:3 energy=-113.51226806640625 stress="-0.009241673164069653 5.172107648832025e-06 -6.330375157403978e-08 5.172107648832025e-06 -0.00924687646329403 7.174138261234475e-08 -6.330375157403978e-08 7.174138261234475e-08 -0.0001614589273231104" free_energy=-113.51226806640625 pbc="T T T"
C        0.00000000       0.00000000      13.96254009      -0.09161445      -0.15856282       0.00304011
C       -0.00002000       2.45999000      13.96253987      -0.09119888       0.15910898       0.00302892
C        2.13042000       1.22997000      13.96254004       0.18206847       0.00098302       0.00304146
C        2.84053000       2.45999000      13.95815382      -0.00036880      -0.00067741      -0.00151881
C        0.71010000       1.23001000      13.98607989       0.00164748      -0.00054265       0.00991303
C        2.84055000       0.00000000      13.95815409      -0.00054264      -0.00031296      -0.00151891
C        0.00000000       0.00000000      10.06010342      -0.00650490      -0.01142606      -0.00582206
C       -0.00002000       2.45999000      10.06010106      -0.00488536       0.01006254      -0.00581944
C        2.13042000       1.22997000      10.06010260       0.01220147      -0.00018137      -0.00582308
C        3.55067000       1.22997000      10.06000164      -0.01218535       0.00071028       0.00080882
C        1.42025000       0.00000000      10.06000246       0.00680728      -0.01056672       0.00081278
C        1.42030000       2.45995000      10.06000004       0.00456667       0.01140669       0.00081107
Li       0.71013225       1.23002595      11.84968112       0.00000886      -0.00000171      -0.00095382
