13
Lattice="4.260799885 0.0 0.0 -2.130399942 3.689960941 0.0 0.0 0.0 24.0" Properties=species:S:1:pos:R:3:forces:R:3 energy=-113.6010971069336 stress="-0.009814958088099957 5.062818672740832e-06 5.76369396654286e-09 5.062818672740832e-06 -0.009820246137678623 1.6758937571026422e-09 5.76369396654286e-09 1.6758937571026422e-09 -0.0002560118737164885" free_energy=-113.6010971069336 pbc="T T T"
C        0.00000000       0.00000000      13.87500000      -0.00672897      -0.01153858       0.00430326
C       -0.00002000       2.45999000      13.87500000       0.01433158       0.00017882       0.00428119
C        2.13042000       1.22997000      13.87500000      -0.00839403       0.01291987       0.00428209
C        2.84053000       2.45999000      13.87500000      -0.01409041      -0.00070606       0.00431168
C        0.71010000       1.23001000      13.87500000       0.00860036       0.01141086       0.00428124
C        2.84055000       0.00000000      13.87500000       0.00630296      -0.01222229       0.00430104
C        0.00000000       0.00000000      10.12500000      -0.00672920      -0.01153799      -0.00430328
C       -0.00002000       2.45999000      10.12500000       0.01433200       0.00017825      -0.00428118
C        2.13042000       1.22997000      10.12500000      -0.00839404       0.01291976      -0.00428195
C        2.84053000       2.45999000      10.12500000      -0.01409006      -0.00070557      -0.00431140
C        0.71010000       1.23001000      10.12500000       0.00860059       0.01141094      -0.00428130
C        2.84055000       0.00000000      10.12500000       0.00630263      -0.01222251      -0.00430092
Li       1.42030000       2.45999000      12.00000000      -0.00004366      -0.00008557      -0.00000043
