197
Lattice="17.219999313 0.0 0.0 -8.609999657 14.912956858 0.0 0.0 0.0 24.0" Properties=species:S:1:pos:R:3:forces:R:3 energy=-1820.896484375 stress="0.0037671716418117285 4.6603699956904165e-06 -1.1543017208737183e-08 4.6603699956904165e-06 0.0037724077701568604 2.2690462841978842e-08 -1.1543017208737183e-08 2.2690462841978842e-08 -0.0031873974949121475" free_energy=-1820.896484375 pbc="T T T"
C        0.00000000       0.00000000      13.67500000      -0.00004073      -0.32171679       0.18978125
C       -1.23002000       2.13047000      13.67500000      -0.27884448       0.16037892       0.18973857
C       14.76004000       4.26078000      13.67500000      -0.01624520      -0.01524452       0.02354039
C       13.53001000       6.39125000      13.67500000       0.00308365       0.00105601       0.03701966
C       -4.92001000       8.52171000      13.67500000      -0.00052193      -0.00005032       0.03672474
C       11.06996000      10.65218000      13.67500000       0.00296113      -0.00224582       0.03702192
C        9.84002000      12.78249000      13.67500000      -0.02197211      -0.00186845       0.02353530
C        2.46005000       0.00000000      13.67500000       0.06227941      -0.03632039       0.04002667
C        1.23002000       2.13047000      13.67500000       0.27874085       0.16032058       0.18972751
C        0.00009000       4.26078000      13.67500000      -0.00372032       0.07531775       0.04003154
C       -1.22994000       6.39125000      13.67500000      -0.02002271       0.00562620       0.03632729
C       -2.45996000       8.52171000      13.67500000      -0.00121620       0.00063325       0.03671224
C       -3.68999000      10.65218000      13.67500000       0.00020236      -0.00510622       0.03671196
C       -4.91993000      12.78249000      13.67500000      -0.00493510      -0.02001418       0.03634247
C        4.91993000       0.00000000      13.67500000       0.01841815       0.01614926       0.03632744
C        3.68990000       2.13047000      13.67500000      -0.00530872       0.02153951       0.02353791
C        2.45996000       4.26078000      13.67500000       0.01322533      -0.01339665       0.02353978
C        1.22994000       6.39125000      13.67500000       0.02351045       0.00761454       0.03631896
C       -0.00009000       8.52171000      13.67500000       0.00370293       0.01032239       0.03681895
C       -1.23011000      10.65218000      13.67500000       0.00376038      -0.00209924       0.03622918
C       -2.46005000      12.78249000      13.67500000       0.01083927      -0.00201451       0.03682770
C        7.37998000       0.00000000      13.67500000       0.00058807       0.00033986       0.03670960
C        6.14995000       2.13047000      13.67500000      -0.00006002      -0.00371413       0.03702264
C        4.92001000       4.26078000      13.67500000      -0.02084904      -0.00742231       0.03652139
C        3.68999000       6.39125000      13.67500000      -0.00313923       0.00102710       0.03701336
C        2.45996000       8.52171000      13.67500000       0.00094913       0.00065090       0.03670254
C        1.22994000      10.65218000      13.67500000      -0.00019756      -0.00406757       0.03622937
C        0.00000000      12.78249000      13.67500000      -0.00010775       0.00025827       0.03623883
C        9.84002000       0.00000000      13.67500000      -0.00053062       0.00044120       0.03670777
C        8.61000000       2.13047000      13.67500000       0.00025565       0.00005317       0.03672491
C        7.38006000       4.26078000      13.67500000      -0.00455332       0.00115495       0.03704536
C        6.15004000       6.39125000      13.67500000      -0.00218951      -0.00063395       0.03704085
C        4.92001000       8.52171000      13.67500000       0.00066911       0.00002069       0.03671593
C        3.68999000      10.65218000      13.67500000       0.00002220      -0.00498984       0.03670072
C        2.46005000      12.78249000      13.67500000      -0.00734935      -0.00378368       0.03682576
C       12.30007000       0.00000000      13.67500000      -0.01880586       0.01582154       0.03632817
C       11.07005000       2.13047000      13.67500000      -0.00367271      -0.00217084       0.03702550
C        9.84011000       4.26078000      13.67500000      -0.00567512       0.00259068       0.03705010
C        8.61009000       6.39125000      13.67500000      -0.00409532       0.00123142       0.03617982
C        7.38006000       8.52171000      13.67500000      -0.00458097       0.00382480       0.03704709
C        6.15004000      10.65218000      13.67500000      -0.00655111      -0.00073779       0.03701755
C        4.92010000      12.78249000      13.67500000       0.00068307      -0.01843358       0.03633102
C       14.75995000       0.00000000      13.67500000      -0.06218046      -0.03614696       0.04002849
C       13.52993000       2.13047000      13.67500000       0.00935423       0.01980681       0.02353571
C       12.29999000       4.26078000      13.67500000       0.01469361      -0.00730131       0.03652813
C       11.06996000       6.39125000      13.67500000       0.00276549      -0.00059732       0.03705159
C        9.83994000       8.52171000      13.67500000       0.00087840       0.00234606       0.03705320
C        8.60991000      10.65218000      13.67500000       0.00073595       0.01628358       0.03652685
C        7.37998000      12.78249000      13.67500000       0.02212676      -0.00173813       0.02353555
C       -0.00000000       1.42031000      13.67500000       0.00005998       0.00015084       3.79171014
C       -1.23002000       3.55078000      13.67500000      -0.02334049       0.16813135       0.02535961
C       -2.45996000       5.68109000      13.67500000       0.01050855       0.03339693       0.03203423
C       -3.68999000       7.81156000      13.67500000       0.00006804      -0.00216091       0.03588430
C       -4.92001000       9.94202000      13.67500000      -0.00197414       0.00079138       0.03588757
C       -6.14995000      12.07234000      13.67500000       0.03353109      -0.00323058       0.03202651
C       -7.37998000      14.20280000      13.67500000       0.13492496      -0.10847922       0.02536780
C        2.46005000       1.42031000      13.67500000       0.15758307      -0.06391240       0.02537083
C        1.23002000       3.55078000      13.67500000       0.02665655       0.16615501       0.02536782
C        0.00009000       5.68109000      13.67500000      -0.00379682       0.00942291       0.02045888
C       -1.22994000       7.81156000      13.67500000      -0.00509352      -0.00931471       0.03691953
C       -2.45996000       9.94202000      13.67500000      -0.00397832      -0.00217163       0.03472665
C       -3.68990000      12.07234000      13.67500000      -0.01093585       0.00430327       0.03691267
C       -4.91993000      14.20280000      13.67500000       0.00602386      -0.00720854       0.02045001
C        4.91993000       1.42031000      13.67500000       0.02313119      -0.02539980       0.03203482
C        3.68990000       3.55078000      13.67500000       0.03651026       0.01639192       0.02722963
C        2.45996000       5.68109000      13.67500000      -0.01037505       0.03342691       0.03204521
C        1.22994000       7.81156000      13.67500000       0.00164947      -0.00731433       0.03692783
C       -0.00009000       9.94202000      13.67500000       0.00051003      -0.00045160       0.03461411
C       -1.23002000      12.07234000      13.67500000      -0.00045784       0.00414593       0.03460605
C       -2.46005000      14.20280000      13.67500000      -0.00502968       0.00509495       0.03691842
C        7.37998000       1.42031000      13.67500000      -0.00193124       0.00145286       0.03588368
C        6.14995000       3.55078000      13.67500000       0.01595052      -0.00086370       0.03566718
C        4.92001000       5.68109000      13.67500000       0.00808859       0.01054947       0.03567049
C        3.68999000       7.81156000      13.67500000      -0.00000657      -0.00218310       0.03589313
C        2.45996000       9.94202000      13.67500000       0.00064251      -0.00032935       0.03473090
C        1.23002000      12.07234000      13.67500000       0.00039099       0.00409615       0.03460242
C        0.00000000      14.20280000      13.67500000       0.00002745       0.00033819       0.03471924
C        9.84002000       1.42031000      13.67500000       0.00153286       0.00134895       0.03588603
C        8.61000000       3.55078000      13.67500000       0.00289248      -0.00398027       0.03465531
C        7.38006000       5.68109000      13.67500000       0.00092850       0.00106892       0.03458605
C        6.15004000       7.81156000      13.67500000      -0.00155231       0.00035345       0.03465708
C        4.92001000       9.94202000      13.67500000       0.00179017       0.00065880       0.03589836
C        3.69007000      12.07234000      13.67500000       0.00678448       0.00603343       0.03692074
C        2.46005000      14.20280000      13.67500000       0.00490988       0.00492419       0.03691701
C       12.29990000       1.42031000      13.67500000      -0.01906300      -0.02696943       0.03203226
C       11.06988000       3.55078000      13.67500000      -0.00555920      -0.00237831       0.03566438
C        9.83994000       5.68109000      13.67500000       0.00258133      -0.00042164       0.03458092
C        8.60991000       7.81156000      13.67500000       0.00411356      -0.00299631       0.03457827
C        7.37989000       9.94202000      13.67500000      -0.00075942      -0.01365758       0.03566777
C        6.14995000      12.07234000      13.67500000      -0.02989242      -0.00477064       0.03203582
C        4.91993000      14.20280000      13.67500000      -0.00565334      -0.00689265       0.02045507
C       14.75995000       1.42031000      13.67500000      -0.16125071      -0.06213631       0.02536774
C       13.52993000       3.55078000      13.67500000      -0.02995683       0.01627269       0.02723071
C       12.29999000       5.68109000      13.67500000      -0.00839034       0.01048290       0.03566116
C       11.06996000       7.81156000      13.67500000       0.00103099       0.00037856       0.03464475
C        9.83994000       9.94202000      13.67500000       0.00443313      -0.01212372       0.03566038
C        8.61000000      12.07234000      13.67500000      -0.00029072      -0.03443645       0.02722947
C        7.37998000      14.20280000      13.67500000      -0.13501552      -0.10860144       0.02537012
C        0.00000000       0.00000000      10.32500000      -0.00015493      -0.30880368      -0.19920355
C       -1.23002000       2.13047000      10.32500000      -0.26768467       0.15414748      -0.19919047
C       14.76004000       4.26078000      10.32500000      -0.02238684      -0.01012293      -0.03401251
C       13.53001000       6.39125000      10.32500000      -0.00233448       0.01123924      -0.03621665
C       -4.92001000       8.52171000      10.32500000       0.00126582       0.00110081      -0.03674196
C       11.06996000      10.65218000      10.32500000       0.01187199      -0.01060412      -0.03621891
C        9.84002000      12.78249000      10.32500000      -0.02326148      -0.01144643      -0.03402227
C        2.46005000       0.00000000      10.32500000       0.18176559      -0.10525498       0.00091446
C        1.23002000       2.13047000      10.32500000       0.26749554       0.15401730      -0.19917484
C        0.00009000       4.26078000      10.32500000      -0.00073473       0.21449204       0.00090511
C       -1.22994000       6.39125000      10.32500000       0.01058246       0.00200429      -0.03344014
C       -2.45996000       8.52171000      10.32500000      -0.00269609      -0.00316925      -0.03800411
C       -3.68999000      10.65218000      10.32500000      -0.00103736      -0.00301035      -0.03800806
C       -4.91993000      12.78249000      10.32500000       0.00707168       0.00855672      -0.03344695
C        4.91993000       0.00000000      10.32500000       0.00026784      -0.01180666      -0.03344048
C        3.68990000       2.13047000      10.32500000       0.00284060       0.02433151      -0.03401937
C        2.45996000       4.26078000      10.32500000       0.02593791      -0.01156850      -0.03400993
C        1.22994000       6.39125000      10.32500000      -0.00688869       0.00051138      -0.03343547
C       -0.00009000       8.52171000      10.32500000       0.00408737      -0.00634732      -0.03810742
C       -1.23011000      10.65218000      10.32500000       0.00697965      -0.00432255      -0.03627658
C       -2.46005000      12.78249000      10.32500000      -0.00042351       0.00151247      -0.03811752
C        7.37998000       0.00000000      10.32500000      -0.00218342       0.00355986      -0.03800175
C        6.14995000       2.13047000      10.32500000       0.01123768      -0.00391644      -0.03621660
C        4.92001000       4.26078000      10.32500000       0.00884380       0.00924691      -0.03663719
C        3.68999000       6.39125000      10.32500000       0.00215735       0.01118037      -0.03620739
C        2.45996000       8.52171000      10.32500000       0.00213085      -0.00313670      -0.03799307
C        1.22994000      10.65218000      10.32500000       0.00322580      -0.00288548      -0.03627130
C        0.00000000      12.78249000      10.32500000      -0.00023337       0.00046520      -0.03627770
C        9.84002000       0.00000000      10.32500000       0.00206086       0.00366786      -0.03800362
C        8.61000000       2.13047000      10.32500000       0.00012847      -0.00207593      -0.03674537
C        7.38006000       4.26078000      10.32500000       0.00311195       0.00543694      -0.03661713
C        6.15004000       6.39125000      10.32500000       0.00245188       0.00186480      -0.03661685
C        4.92001000       8.52171000      10.32500000      -0.00124022       0.00112498      -0.03673428
C        3.68999000      10.65218000      10.32500000       0.00720565      -0.00287133      -0.03799913
C        2.46005000      12.78249000      10.32500000       0.00416030       0.00305172      -0.03811540
C       12.30007000       0.00000000      10.32500000       0.00013838      -0.01213119      -0.03343944
C       11.07005000       2.13047000      10.32500000      -0.01473185      -0.00568885      -0.03621919
C        9.84011000       4.26078000      10.32500000      -0.00667266       0.00345902      -0.03661647
C        8.61009000       6.39125000      10.32500000      -0.00370490      -0.00198618      -0.03619664
C        7.38006000       8.52171000      10.32500000      -0.00390710      -0.00494560      -0.03661470
C        6.15004000      10.65218000      10.32500000      -0.00885617      -0.01244255      -0.03621208
C        4.92010000      12.78249000      10.32500000      -0.01112066       0.00682141      -0.03343929
C       14.75995000       0.00000000      10.32500000      -0.18205854      -0.10515874       0.00091282
C       13.52993000       2.13047000      10.32500000       0.00143062       0.02589678      -0.03402698
C       12.29999000       4.26078000      10.32500000      -0.00905474       0.00936245      -0.03664906
C       11.06996000       6.39125000      10.32500000      -0.00217632       0.00187698      -0.03662688
C        9.83994000       8.52171000      10.32500000       0.00041717      -0.00295024      -0.03662490
C        8.60991000      10.65218000      10.32500000       0.00369635      -0.01312573      -0.03665026
C        7.37998000      12.78249000      10.32500000       0.02328730      -0.01140474      -0.03402574
C        1.23002000       0.71016000      10.32500000       0.25716290      -0.14823884      -0.19631423
C        0.00000000       2.84062000      10.32500000       0.00029726       0.29294834      -0.19634625
C       -1.22994000       4.97094000      10.32500000       0.02527942       0.00861188      -0.03180621
C       -2.45996000       7.10140000      10.32500000      -0.00866136       0.00812061      -0.03440857
C       -3.68999000       9.23187000      10.32500000      -0.00104341      -0.00126629      -0.03499364
C       -4.91993000      11.36218000      10.32500000      -0.00056557      -0.00861099      -0.03440598
C       -6.14995000      13.49265000      10.32500000       0.01977931       0.01713767      -0.03180311
C        3.69007000       0.71016000      10.32500000      -0.00885397      -0.02435371      -0.03180908
C        2.46005000       2.84062000      10.32500000       0.16902906       0.09745704       0.00236081
C        1.23011000       4.97094000      10.32500000      -0.02889027       0.01013472      -0.03181224
C        0.00009000       7.10140000      10.32500000      -0.00412123       0.01212997      -0.03487569
C       -1.22994000       9.23187000      10.32500000      -0.00419167       0.00439409      -0.03485071
C       -2.45988000      11.36218000      10.32500000      -0.00448565       0.00225794      -0.03484546
C       -3.68990000      13.49265000      10.32500000       0.00502242      -0.00406864      -0.03486607
C        6.14995000       0.71016000      10.32500000       0.01173126       0.00357382      -0.03441123
C        4.91993000       2.84062000      10.32500000      -0.00355040       0.00621482      -0.03114682
C        3.68999000       4.97094000      10.32500000       0.00684542      -0.00815975      -0.03115448
C        2.45996000       7.10140000      10.32500000       0.00921614       0.00813655      -0.03442021
C        1.22994000       9.23187000      10.32500000       0.00067762       0.00291263      -0.03485579
C       -0.00000000      11.36218000      10.32500000      -0.00287969       0.00284617      -0.03445375
C       -1.23002000      13.49265000      10.32500000       0.00321616      -0.00150119      -0.03484310
C        8.61000000       0.71016000      10.32500000       0.00001101       0.00174151      -0.03499211
C        7.37998000       2.84062000      10.32500000      -0.00182448      -0.00735818      -0.03631699
C        6.15004000       4.97094000      10.32500000      -0.00456491      -0.00237612      -0.03646050
C        4.92001000       7.10140000      10.32500000      -0.00366385       0.00033758      -0.03632170
C        3.68999000       9.23187000      10.32500000       0.00135344      -0.00133638      -0.03500313
C        2.46005000      11.36218000      10.32500000      -0.00588598       0.00074436      -0.03484775
C        1.23002000      13.49265000      10.32500000      -0.00283468      -0.00161172      -0.03484027
C       11.07005000       0.71016000      10.32500000      -0.01160179       0.00341342      -0.03441074
C        9.84002000       2.84062000      10.32500000       0.00187423      -0.00741642      -0.03632011
C        8.61009000       4.97094000      10.32500000      -0.00051815      -0.00007526      -0.03453262
C        7.38006000       7.10140000      10.32500000      -0.00017026       0.00014971      -0.03452875
C        6.15004000       9.23187000      10.32500000      -0.00245052       0.00269386      -0.03632689
C        4.92010000      11.36218000      10.32500000      -0.00602379      -0.00872844      -0.03441844
C        3.69007000      13.49265000      10.32500000      -0.00909539      -0.00562814      -0.03486621
C       13.52993000       0.71016000      10.32500000       0.00844362      -0.02404307      -0.03180784
C       12.29990000       2.84062000      10.32500000       0.00771511       0.00794623      -0.03113961
C       11.06996000       4.97094000      10.32500000       0.00790834      -0.00053074      -0.03645524
C        9.83994000       7.10140000      10.32500000       0.00360481       0.00215160      -0.03452044
C        8.60991000       9.23187000      10.32500000       0.00378643       0.00630691      -0.03645393
C        7.37998000      11.36218000      10.32500000       0.01064530       0.00302425      -0.03114383
C        6.14995000      13.49265000      10.32500000      -0.01608342       0.01889170      -0.03180825
C       15.98997000       0.71016000      10.32500000      -0.25668120      -0.14835545      -0.19629285
C       14.75995000       2.84062000      10.32500000      -0.17267008       0.09593162       0.00237085
C       13.53001000       4.97094000      10.32500000      -0.00667414      -0.00828997      -0.03114471
C       12.29999000       7.10140000      10.32500000       0.00361547       0.00031026      -0.03631220
C       11.06996000       9.23187000      10.32500000       0.00235942       0.00271817      -0.03631444
C        9.84002000      11.36218000      10.32500000      -0.01389940       0.00105177      -0.03113927
C        8.61000000      13.49265000      10.32500000      -0.00000946      -0.20002893       0.00237551
Li      -0.00000000       1.42031000      12.00000000      -0.00001907      -0.00004381      -3.33983088
197
Lattice="17.219999313 0.0 0.0 -8.609999657 14.912956858 0.0 0.0 0.0 24.0" Properties=species:S:1:pos:R:3:forces:R:3 energy=-1821.1767578125 stress="0.003770720912143588 -6.899010713823372e-07 -4.49532011614906e-09 -6.899010713823372e-07 0.0037725656293332577 1.8262820589143303e-08 -4.49532011614906e-09 1.8262820589143303e-08 -0.0028755951207131147" free_energy=-1821.1767578125 pbc="T T T"
C        0.00000000       0.00000000      13.67500000      -0.00207473      -0.37661171       0.46191061
C       -1.23002000       2.13047000      13.67500000      -0.32722959       0.18516093       0.46182328
C       14.76004000       4.26078000      13.67500000      -0.04946950       0.02156083       0.00911253
C       13.53001000       6.39125000      13.67500000      -0.00112862       0.00333397       0.04242826
C       -4.92001000       8.52171000      13.67500000       0.00003625       0.00007812       0.04421916
C       11.06996000      10.65218000      13.67500000       0.00231756      -0.00597672       0.04217543
C        9.84002000      12.78249000      13.67500000      -0.00727146      -0.04989307       0.00887674
C        2.46005000       0.00000000      13.67500000       0.09776529      -0.05690482       0.07383844
C        1.23002000       2.13047000      13.67500000       0.32556701       0.18653437       0.46204001
C        0.00009000       4.26078000      13.67500000      -0.00202567       0.11562090       0.07410006
C       -1.22994000       6.39125000      13.67500000      -0.01232751       0.00842393       0.03723480
C       -2.45996000       8.52171000      13.67500000      -0.00157842      -0.00123286       0.04431151
C       -3.68999000      10.65218000      13.67500000      -0.00122670      -0.00350661       0.04402367
C       -4.92000050      12.78220408      13.67551918       0.00424119      -0.00084744       0.03066439
C        4.92019312       0.00023070      13.67551896       0.00369988      -0.00322535       0.02993722
C        3.68982416       2.13077771      13.67533626       0.04657462       0.01814126       0.00437411
C        2.46014893       4.26058862      13.67533628       0.04041362       0.03114350       0.00435802
C        1.23027586       6.39135878      13.67551884      -0.00041762       0.00463277       0.03020722
C       -0.00003710       8.52185746      13.67552599       0.00033774      -0.00020356       0.03714586
C       -1.23005628      10.65215001      13.67551756       0.00053518      -0.00008540       0.03614477
C       -2.45989515      12.78246122      13.67552611      -0.00014068       0.00109912       0.03687960
C        7.37998840       0.00000486      13.67552442      -0.00029622       0.00065709       0.03662863
C        6.14994914       2.13041694      13.67552889       0.00408898       0.00102180       0.03481243
C        4.91971216       4.26067397      13.67552173       0.01288741       0.00772176       0.03258305
C        3.68994515       6.39126467      13.67552876       0.00373230       0.00269133       0.03478893
C        2.45997356       8.52171930      13.67552432       0.00036090      -0.00075167       0.03660432
C        1.22993718      10.65212189      13.67551756       0.00011364       0.00010442       0.03562613
C       -0.00000154      12.78249369      13.67551770       0.00012375       0.00064208       0.03565524
C        9.84001242       0.00000630      13.67552440       0.00023823       0.00047961       0.03668066
C        8.61000365       2.13047076      13.67552464      -0.00017277      -0.00129228       0.03655760
C        7.37999495       4.26079650      13.67552922       0.00293460       0.00191184       0.03698370
C        6.15000872       6.39124094      13.67552916       0.00231924       0.00180817       0.03698022
C        4.92001956       8.52171030      13.67552451      -0.00049476      -0.00006252       0.03656559
C        3.68999032      10.65210872      13.67552430       0.00055073      -0.00005568       0.03669117
C        2.45994501      12.78243595      13.67552608      -0.00005708       0.00096628       0.03674200
C       12.29980134       0.00022602      13.67551897      -0.00523281      -0.00408037       0.02973920
C       11.06999753       2.13043899      13.67552894      -0.00403362       0.00041655       0.03480823
C        9.84002893       4.26081701      13.67552929      -0.00260652       0.00139345       0.03691317
C        8.61003150       6.39126759      13.67551685      -0.00033211      -0.00040792       0.03536313
C        7.37999456       8.52176464      13.67552924      -0.00034294      -0.00389333       0.03691188
C        6.14994641      10.65216946      13.67552882      -0.00040706      -0.00496252       0.03481122
C        4.92010976      12.78222666      13.67551901      -0.00587688      -0.00218844       0.02974481
C       14.75906171      -0.00051639      13.67557184      -0.05800216      -0.03347544       0.06647114
C       13.53006363       2.13075295      13.67533622      -0.04540173       0.01935942       0.00421586
C       12.30019991       4.26067570      13.67552183      -0.01085444       0.00805303       0.03299305
C       11.06999951       6.39124147      13.67552931      -0.00192316       0.00218527       0.03740221
C        9.83995255       8.52174352      13.67552933       0.00100981      -0.00281929       0.03743377
C        8.60992051      10.65241262      13.67552181       0.00093511      -0.01378439       0.03301972
C        7.38029610      12.78246517      13.67533622      -0.00519016      -0.04870327       0.00423986
C        0.00000086       1.42031215      13.72916729       0.00094477       0.00044062       1.68854499
C       -1.23035344       3.55318188      13.67536228      -0.00678512       0.05117288      -0.00175380
C       -2.45980988       5.68156710      13.67545763      -0.00166637       0.00868665       0.02826014
C       -3.68998903       7.81152913      13.67551263      -0.00073168       0.00018379       0.02781585
C       -4.92003820       9.94203131      13.67551268      -0.00028798      -0.00030104       0.02807138
C       -6.14947098      12.07229385      13.67545752       0.00241516      -0.00729305       0.03106095
C       -7.37805250      14.20125030      13.67536240       0.04101530      -0.03299665      -0.00158752
C        2.46230119       1.41939697      13.67536244       0.04918006      -0.01781832       0.00032705
C        1.23040081       3.55315364      13.67536240       0.01006502       0.05055730       0.00050832
C        0.00003576       5.68122461      13.67529227       0.00581055       0.01266646       0.02141111
C       -1.23001276       7.81142693      13.67552742       0.00063826       0.00011445       0.03164246
C       -2.46001683       9.94198898      13.67549609      -0.00067199      -0.00029702       0.02980358
C       -3.69005623      12.07240148      13.67552732       0.00154145       0.00043137       0.03446244
C       -4.91984394      14.20269702      13.67529214       0.01364927      -0.00802451       0.02422715
C        4.92026045       1.41994715      13.67545764       0.00399336       0.00525777       0.03582089
C        3.69042158       3.55101417      13.67538899       0.01131054       0.00609464       0.03327464
C        2.45981179       5.68156753      13.67545779       0.00665774       0.00138239       0.03601725
C        1.22996356       7.81145551      13.67552754       0.00096529       0.00251021       0.03705420
C       -0.00008271       9.94201355      13.67549449       0.00087618       0.00225145       0.03520450
C       -1.23002654      12.07239923      13.67549437       0.00298137      -0.00097236       0.03503336
C       -2.46012185      14.20287279      13.67552741       0.00291301      -0.00028108       0.03727178
C        7.37995241       1.42033076      13.67551262       0.00083533      -0.00015242       0.03645508
C        6.15017786       3.55076766      13.67550953      -0.00106335      -0.00095171       0.03563640
C        4.92012555       5.68124071      13.67550958      -0.00081200       0.00057278       0.03565510
C        3.68998991       7.81152881      13.67551276       0.00045131       0.00057133       0.03649592
C        2.45996918       9.94201530      13.67549616       0.00005827      -0.00070141       0.03514645
C        1.23002559      12.07239852      13.67549432      -0.00249998      -0.00131170       0.03497861
C        0.00000039      14.20280483      13.67549599       0.00008598       0.00027130       0.03509834
C        9.84004190       1.42032927      13.67551266      -0.00144575      -0.00059814       0.03643053
C        8.61004132       3.55072314      13.67549508      -0.00118389      -0.00096438       0.03519168
C        7.38007326       5.68110527      13.67549409      -0.00050659       0.00071447       0.03506143
C        6.15001782       7.81156505      13.67549510      -0.00086025      -0.00046255       0.03519063