13
Lattice="4.260799885 0.0 0.0 -2.130399942 3.689960941 0.0 0.0 0.0 24.0" Properties=species:S:1:pos:R:3:forces:R:3 energy=-112.53848266601562 stress="-0.01702398620545864 5.558796601690119e-06 2.455144976210022e-09 5.558796601690119e-06 -0.01703007146716118 -7.06412317530436e-10 2.455144976210022e-09 -7.06412317530436e-10 -0.027221471071243286" free_energy=-112.53848266601562 pbc="T T T"
C        0.00000000       0.00000000      13.50000000       0.09851039       0.17073363       0.57068121
C       -0.00002000       2.45999000      13.50000000      -0.19600283       0.00021859       0.57055724
C        2.13042000       1.22997000      13.50000000       0.09665174      -0.16920772       0.57062137
C        2.84053000       2.45999000      13.50000000       0.19630092      -0.00079047       0.57071126
C        0.71010000       1.23001000      13.50000000      -0.09642366      -0.17081073       0.57062089
C        2.84055000       0.00000000      13.50000000      -0.09893354       0.16995817       0.57065701
C        0.00000000       0.00000000      10.50000000       0.09851025       0.17073384      -0.57068121
C       -0.00002000       2.45999000      10.50000000      -0.19600257       0.00021797      -0.57055712
C        2.13042000       1.22997000      10.50000000       0.09665146      -0.16920802      -0.57062125
C        2.84053000       2.45999000      10.50000000       0.19630125      -0.00079031      -0.57071137
C        0.71010000       1.23001000      10.50000000      -0.09642381      -0.17081062      -0.57062078
C        2.84055000       0.00000000      10.50000000      -0.09893378       0.16995861      -0.57065701
Li       1.42030000       2.45999000      12.00000000      -0.00020601      -0.00020285      -0.00000016
13
Lattice="4.260799885 0.0 0.0 -2.130399942 3.689960941 0.0 0.0 0.0 24.0" Properties=species:S:1:pos:R:3:forces:R:3 energy=-112.59540557861328 stress="-0.016523243859410286 -1.136778678301198e-06 -7.232785481647852e-10 -1.136778678301198e-06 -0.016521869227290154 -7.141642277552762e-10 -7.232785481647852e-10 -7.141642277552762e-10 -0.026127995923161507" free_energy=-112.59540557861328 pbc="T T T"
C        0.00140729       0.00243905      13.50815259      -0.02771505      -0.04784590       0.54477280
C       -0.00282004       2.45999312      13.50815082       0.05561786      -0.00054066       0.54470485
C        2.13180074       1.22755275      13.50815173      -0.02763633       0.04805570       0.54476482
C        2.84333430       2.45997871      13.50815302      -0.05534334      -0.00012999       0.54480648
C        0.70872252       1.22756985      13.50815173       0.02771369       0.04793260       0.54473746
C        2.83913666       0.00242797      13.50815224       0.02745404      -0.04743594       0.54476321
C        0.00140729       0.00243905      10.49184741      -0.02771532      -0.04784582      -0.54477286
C       -0.00282004       2.45999311      10.49184918       0.05561750      -0.00054112      -0.54470479
C        2.13180074       1.22755274      10.49184827      -0.02763648       0.04805567      -0.54476464
C        2.84333430       2.45997871      10.49184698      -0.05534344      -0.00013007      -0.54480672
C        0.70872252       1.22756985      10.49184827       0.02771383       0.04793283      -0.54473734
C        2.83913666       0.00242798      10.49184776       0.02745436      -0.04743596      -0.54476327
Li       1.42029706       2.45998710      12.00000000      -0.00018137      -0.00007129      -0.00000002
13
Lattice="4.260799885 0.0 0.0 -2.130399942 3.689960941 0.0 0.0 0.0 24.0" Properties=species:S:1:pos:R:3:forces:R:3 energy=-112.99040222167969 stress="-0.013845307752490044 -2.3108595996745862e-05 -1.4358907396427867e-09 -2.3108595996745862e-05 -0.01382057648152113 3.5645268958717224e-09 -1.4358907396427867e-09 3.5645268958717224e-09 -0.018534457311034203" free_energy=-112.99040222167969 pbc="T T T"
C        0.00572059       0.00992996      13.59036968      -0.43205932      -0.74829590       0.36640310
C       -0.01136359       2.45996381      13.59035413       0.85959220      -0.00105812       0.36666927
C        2.13599661       1.22018051      13.59036419      -0.42415035       0.74219406       0.36662647
C        2.85191998       2.45991551      13.59037483      -0.85984975       0.00364056       0.36628962
C        0.70454811       1.22008084      13.59036192       0.42373610       0.74774593       0.36647004
C        2.83477400       0.00990049      13.59036693       0.43272561      -0.74451911       0.36629742
C        0.00572056       0.00992998      10.40963031      -0.43205827      -0.74829352      -0.36640304
C       -0.01136360       2.45996373      10.40964589       0.85959440      -0.00106169      -0.36666930
C        2.13599658       1.22018048      10.40963583      -0.42415047       0.74219364      -0.36662641
C        2.85192000       2.45991551      10.40962514      -0.85984975       0.00364025      -0.36628968
C        0.70454811       1.22008087      10.40963808       0.42373246       0.74774718      -0.36647010
C        2.83477401       0.00990052      10.40963306       0.43272588      -0.74451852      -0.36629760
Li       1.42026862       2.45996781      11.99999999       0.00001135       0.00058489       0.00000023
13
Lattice="4.260799885 0.0 0.0 -2.130399942 3.689960941 0.0 0.0 0.0 24.0" Properties=species:S:1:pos:R:3:forces:R:3 energy=-113.38956451416016 stress="-0.011071066372096539 -2.7826581572298892e-05 2.745845106844058e-09 -2.7826581572298892e-05 -0.011037375777959824 -2.9706681559105164e-10 2.745845106844058e-09 -2.9706681559105164e-10 -0.00919786561280489" free_energy=-113.38956451416016 pbc="T T T"
C        0.00582843       0.01014355      13.71695007      -0.46664330      -0.80821836       0.16832943
C       -0.01155193       2.45993280      13.71692015       0.92688727      -0.00058829       0.16882400
C        2.13606901       1.22002373      13.71694189      -0.45571834       0.80024993       0.16863455
C        2.85216066       2.45989890      13.71695827      -0.92792648       0.00480944       0.16811863
C        0.70450154       1.21984494      13.71693334       0.45481640       0.80787027       0.16851565
C        2.83460830       0.01013561      13.71694009       0.46851516      -0.80447680       0.16828606
C        0.00582839       0.01014368      10.28304991      -0.46664315      -0.80823231      -0.16832921
C       -0.01155186       2.45993249      10.28307989       0.92688549      -0.00057506      -0.16882364
C        2.13606893       1.22002364      10.28305816      -0.45571741       0.80025917      -0.16863461
C        2.85216072       2.45989891      10.28304167      -0.92793250       0.00481266      -0.16811848
C        0.70450142       1.21984503      10.28306667       0.45482385       0.80786622      -0.16851607
C        2.83460829       0.01013571      10.28305988       0.46851432      -0.80448496      -0.16828583
Li       1.42022804       2.45995104      11.99999997       0.00013860       0.00070787      -0.00000032
13
Lattice="4.260799885 0.0 0.0 -2.130399942 3.689960941 0.0 0.0 0.0 24.0" Properties=species:S:1:pos:R:3:forces:R:3 energy=-113.57472229003906 stress="-0.009988618083298206 -1.3329921785043553e-05 -1.3583160152208507e-09 -1.3329921785043553e-05 -0.009972193278372288 -1.5759868965403712e-09 -1.3583160152208507e-09 -1.5759868965403712e-09 -0.002508659614250064" free_energy=-113.57472229003906 pbc="T T T"
C        0.00250748       0.00441355      13.82583258      -0.20650429      -0.35868484       0.04307015
C       -0.00497327       2.45992261      13.82579836       0.40984946       0.00076057       0.04354461
C        2.13285129       1.22570749      13.82582585      -0.20105267       0.35380936       0.04325236
C        2.84560380       2.45994566      13.82583936      -0.41124415       0.00294918       0.04289171
C        0.70772694       1.22555045      13.82581154       0.20008543       0.35864472       0.04330561
C        2.83791577       0.00444322      13.82581637       0.20879140      -0.35768068       0.04316075
C        0.00250743       0.00441337      10.17416739      -0.20649949      -0.35866940      -0.04307038
C       -0.00497318       2.45992251      10.17420173       0.40984419       0.00076606      -0.04354477
C        2.13285118       1.22570760      10.17417423      -0.20104170       0.35380521      -0.04325259
C        2.84560375       2.45994578      10.17416056      -0.41124481       0.00294708      -0.04289176
C        0.70772696       1.22555048      10.17418846       0.20007652       0.35862741      -0.04330553
C        2.83791571       0.00444318      10.17418360       0.20879030      -0.35767823      -0.04316075
Li       1.42019605       2.45994414      11.99999994       0.00014988       0.00040355       0.00000062
13
Lattice="4.260799885 0.0 0.0 -2.130399942 3.689960941 0.0 0.0 0.0 24.0" Properties=species:S:1:pos:R:3:forces:R:3 energy=-113.60001373291016 stress="-0.009831123985350132 -1.7826209841587115e-06 4.568030398388601e-09 -1.7826209841587115e-06 -0.009829485788941383 -1.424329543198155e-09 4.568030398388601e-09 -1.424329543198155e-09 -0.0005692847189493477" free_energy=-113.60001373291016 pbc="T T T"
C        0.00038906       0.00073164      13.86760223      -0.03924442      -0.06888102       0.00945511
C       -0.00078463       2.45994218      13.86757301       0.07802074       0.00092509       0.00984447
C        2.13081152       1.22932432      13.86759778      -0.03855713       0.06738136       0.00955164
C        2.84140075       2.45999309      13.86760597      -0.07926475       0.00050987       0.00935979
C        0.70975568       1.22922329      13.86758320       0.03808972       0.06939864       0.00968570
C        2.84006468       0.00076804      13.86758569       0.04088197      -0.06940888       0.00961311
C        0.00038910       0.00073173      10.13239772      -0.03925712      -0.06888450      -0.00945501
C       -0.00078463       2.45994219      10.13242708       0.07801659       0.00091891      -0.00984415
C        2.13081162       1.22932437      10.13240230      -0.03857765       0.06738177      -0.00955182
C        2.84140067       2.45999319      10.13239395      -0.07925252       0.00051049      -0.00936003
C        0.70975553       1.22922296      10.13241679       0.03810246       0.06941099      -0.00968550
C        2.84006459       0.00076804      10.13241429       0.04089522      -0.06941226      -0.00961325
Li       1.42018596       2.45994499      11.99999994       0.00014688       0.00014968      -0.00000006
13
Lattice="4.260799885 0.0 0.0 -2.130399942 3.689960941 0.0 0.0 0.0 24.0" Properties=species:S:1:pos:R:3:forces:R:3 energy=-113.60124969482422 stress="-0.009796247817575932 2.922257635873393e-08 1.584008035848683e-09 2.922257635873393e-08 -0.009796510450541973 -2.4292534650527386e-10 1.584008035848683e-09 -2.4292534650527386e-10 -8.668308873893693e-05" free_energy=-113.60124969482422 pbc="T T T"
C       -0.00013196      -0.00018662      13.87902116       0.00171783       0.00229207       0.00133498
C        0.00024792       2.45996092      13.87899847      -0.00304593       0.00042826       0.00162931
C        2.13030364       1.23021647      13.87901837       0.00123171      -0.00272955       0.00137793
C        2.84034734       2.46000388      13.87902305       0.00212886      -0.00026684       0.00130495
C        0.71025588       1.23014860      13.87900591      -0.00145966      -0.00156918       0.00154974
C        2.84061457      -0.00016139      13.87900701      -0.00064251       0.00181405       0.00150707
C       -0.00013214      -0.00018658      10.12097879       0.00173166       0.00229211      -0.00133401
C        0.00024783       2.45996084      10.12100163      -0.00303300       0.00042889      -0.00163853
C        2.13030339       1.23021652      10.12098171       0.00124578      -0.00272371      -0.00139739
C        2.84034748       2.46000399      10.12097686       0.00211189      -0.00027595      -0.00129150
C        0.71025595       1.23014846      10.12099409      -0.00146644      -0.00156682      -0.00153711
C        2.84061472      -0.00016145      10.12099296      -0.00065971       0.00181437      -0.00150444
Li       1.42018527       2.45994638      11.99999994       0.00013940       0.00006234      -0.00000096
