13
Lattice="4.260799885 0.0 0.0 -2.130399942 3.689960941 0.0 0.0 0.0 24.0" Properties=species:S:1:pos:R:3:forces:R:3 energy=-112.53848266601562 stress="-0.017024001106619835 5.559008968702983e-06 2.8333095869470526e-09 5.559008968702983e-06 -0.01703006587922573 4.5680721427743265e-09 2.8333095869470526e-09 4.5680721427743265e-09 -0.027221467345952988" free_energy=-112.53848266601562 pbc="T T T"
C        0.00000000       0.00000000      13.50000000       0.09851080       0.17073430       0.57068133
C       -0.00002000       2.45999000      13.50000000      -0.19600363       0.00021786       0.57055706
C        2.13042000       1.22997000      13.50000000       0.09665148      -0.16920781       0.57062149
C        2.84053000       2.45999000      13.50000000       0.19630200      -0.00079026       0.57071137
C        0.71010000       1.23001000      13.50000000      -0.09642413      -0.17081082       0.57062078
C        2.84055000       0.00000000      13.50000000      -0.09893343       0.16995803       0.57065701
C        0.00000000       0.00000000      10.50000000       0.09851053       0.17073384      -0.57068145
C       -0.00002000       2.45999000      10.50000000      -0.19600277       0.00021815      -0.57055712
C        2.13042000       1.22997000      10.50000000       0.09665170      -0.16920781      -0.57062137
C        2.84053000       2.45999000      10.50000000       0.19630112      -0.00079045      -0.57071120
C        0.71010000       1.23001000      10.50000000      -0.09642399      -0.17081061      -0.57062095
C        2.84055000       0.00000000      10.50000000      -0.09893368       0.16995841      -0.57065690
Li       1.42030000       2.45999000      12.00000000      -0.00020619      -0.00020299      -0.00000035
13
Lattice="4.260799885 0.0 0.0 -2.130399942 3.689960941 0.0 0.0 0.0 24.0" Properties=species:S:1:pos:R:3:forces:R:3 energy=-112.71538543701172 stress="-0.01482425071299076 -2.629516711749602e-05 -6.698030574625591e-09 -2.629516711749602e-05 -0.014795031398534775 -5.508852485291982e-09 -6.698030574625591e-09 -5.508852485291982e-09 -0.022475073114037514" free_energy=-112.71538543701172 pbc="T T T"
C        0.00703649       0.01219531      13.54076295      -0.53466409      -0.92570949       0.45863366
C       -0.01402026       2.46000556      13.54075408       1.06624269      -0.00314052       0.45875424
C        2.13732368       1.21788373      13.54075868      -0.52736515       0.92073309       0.45879215
C        2.85455157       2.45993355      13.54076510      -1.06612933       0.00236958       0.45862889
C        0.70321256       1.21780923      13.54075862       0.52712625       0.92631894       0.45865792
C        2.83348333       0.01213986      13.54076121       0.53483713      -0.92076778       0.45860708
C        0.00703647       0.01219527      10.45923704      -0.53466189      -0.92570674      -0.45863378
C       -0.01402020       2.46000558      10.45924592       1.06624174      -0.00314082      -0.45875427
C        2.13732369       1.21788373      10.45924133      -0.52736509       0.92073333      -0.45879212
C        2.85455151       2.45993354      10.45923492      -1.06612873       0.00236928      -0.45862901
C        0.70321257       1.21780924      10.45924136       0.52712512       0.92631710      -0.45865756
C        2.83348331       0.01213989      10.45923879       0.53483570      -0.92076862      -0.45860708
Li       1.42028527       2.45997550      11.99999998      -0.00009412       0.00039283      -0.00000007
13
Lattice="4.260799885 0.0 0.0 -2.130399942 3.689960941 0.0 0.0 0.0 24.0" Properties=species:S:1:pos:R:3:forces:R:3 energy=-113.37667846679688 stress="-0.013469208963215351 9.656997463025618e-06 -2.920285568919212e-09 9.656997463025618e-06 -0.013472668826580048 -4.759296512446554e-09 -2.920285568919212e-09 -4.759296512446554e-09 -0.009707808494567871" free_energy=-113.37667846679688 pbc="T T T"
C       -0.00616683      -0.01062055      13.71827411       0.49138290       0.84977126       0.17753378
C        0.01242419       2.45983650      13.71824234      -0.98708463       0.00740035       0.17807317
C        2.12417010       1.24073132      13.71826599       0.49548113      -0.85447961       0.17782538
C        2.82819090       2.45990236      13.71828356       0.98618776       0.00517219       0.17728093
C        0.71640674       1.24064921      13.71825618      -0.49667418      -0.85433143       0.17776251
C        2.84659181      -0.01051992      13.71826431      -0.48937243       0.84610581       0.17744595
C       -0.00616677      -0.01062050      10.28172582       0.49136865       0.84977251      -0.17753422
C        0.01242440       2.45983657      10.28175762      -0.98709559       0.00740653      -0.17807379
C        2.12417018       1.24073133      10.28173405       0.49547446      -0.85448146      -0.17782518
C        2.82819065       2.45990228      10.28171650       0.98620301       0.00517004      -0.17728145
C        0.71640671       1.24064914      10.28174379      -0.49666333      -0.85432917      -0.17776226
C        2.84659162      -0.01051985      10.28173571      -0.48936635       0.84610045      -0.17744511
Li       1.42022625       2.45995207      11.99999988       0.00015883       0.00072288       0.00000040
13
Lattice="4.260799885 0.0 0.0 -2.130399942 3.689960941 0.0 0.0 0.0 24.0" Properties=species:S:1:pos:R:3:forces:R:3 energy=-113.59234619140625 stress="-0.00990756880491972 1.1078359420935158e-05 3.7797569518716045e-09 1.1078359420935158e-05 -0.009939039126038551 4.574559842041026e-09 3.7797569518716045e-09 4.574559842041026e-09 -0.0015444832388311625" free_energy=-113.59234619140625 pbc="T T T"
C        0.00122705       0.00217786      13.84590978      -0.10627203      -0.18272567       0.02620365
C       -0.00248219       2.45996827      13.84588037       0.21072312       0.00002918       0.02657846
C        2.13173524       1.22779708      13.84590877      -0.10930987       0.18611163       0.02620426
C        2.84312469       2.46005408      13.84591577      -0.21261372      -0.00285554       0.02607235
C        0.70882951       1.22771472      13.84589016       0.10883886       0.18559712       0.02640465
C        2.83920019       0.00226281      13.84589152       0.10854800      -0.18611117       0.02639620
C        0.00122670       0.00217800      10.15409009      -0.10625561      -0.18273745      -0.02619939
C       -0.00248224       2.45996859      10.15411957       0.21072975       0.00000549      -0.02657416
C        2.13173514       1.22779705      10.15409128      -0.10929380       0.18611427      -0.02619895
C        2.84312484       2.46005388      10.15408430      -0.21263200      -0.00284418      -0.02607356
C        0.70882981       1.22771467      10.15410981       0.10881497       0.18561058      -0.02640623
C        2.83920010       0.00226273      10.15410855       0.10855079      -0.18610293      -0.02640708
Li       1.42019110       2.45996020      11.99999983       0.00017122      -0.00009151      -0.00000036
13
Lattice="4.260799885 0.0 0.0 -2.130399942 3.689960941 0.0 0.0 0.0 24.0" Properties=species:S:1:pos:R:3:forces:R:3 energy=-113.6010971069336 stress="-0.009863602928817272 -1.5202748727460857e-05 -5.270620051511798e-10 -1.5202748727460857e-05 -0.009825428016483784 3.3816022204646856e-10 -5.270620051511798e-10 3.3816022204646856e-10 -0.00019785617769230157" free_energy=-113.6010971069336 pbc="T T T"
C       -0.00034819      -0.00051071      13.87653609       0.01929810       0.02797691       0.00319697
C        0.00058400       2.45999995      13.87651888      -0.03114824      -0.00197606       0.00343414
C        2.13010561       1.23055914      13.87653676       0.01762478      -0.03061920       0.00318865
C        2.84000616       2.46000078      13.87653720       0.03023182       0.00033645       0.00322185
C        0.71044168       1.23046073      13.87652233      -0.01752545      -0.02656795       0.00342514
C        2.84084668      -0.00053462      13.87652184      -0.01855198       0.03087504       0.00342582
C       -0.00034813      -0.00051091      10.12346390       0.01929381       0.02799195      -0.00319727
C        0.00058409       2.45999959      10.12348118      -0.03116691      -0.00194729      -0.00343430
C        2.13010596       1.23055918      10.12346346       0.01759247      -0.03062072      -0.00318882
C        2.84000583       2.46000091      10.12346284       0.03025296       0.00033085      -0.00322188
C        0.71044131       1.23046111      10.12347759      -0.01749212      -0.02659307      -0.00342487
C        2.84084670      -0.00053448      10.12347790      -0.01855122       0.03086332      -0.00342596
Li       1.42018821       2.45995926      11.99999981       0.00014203      -0.00005028       0.00000041
13
Lattice="4.260799885 0.0 0.0 -2.130399942 3.689960941 0.0 0.0 0.0 24.0" Properties=species:S:1:pos:R:3:forces:R:3 energy=-113.60126495361328 stress="-0.009763344191014767 1.0998855032084975e-05 7.662012357911863e-09 1.0998855032084975e-05 -0.009790158830583096 -1.936166560412289e-09 7.662012357911863e-09 -1.936166560412289e-09 7.566011959170282e-07" free_energy=-113.60126495361328 pbc="T T T"
C       -0.00007823      -0.00017822      13.88107087      -0.00123287       0.00161198      -0.00008997
C        0.00022441       2.45995347      13.88106157      -0.00194163       0.00163926       0.00006196
C        2.13032439       1.23016901      13.88107157      -0.00095142       0.00008627      -0.00008367
C        2.84033446       2.46000174      13.88107191       0.00166198      -0.00107414      -0.00007600
C        0.71022293       1.23017302      13.88106386       0.00104660      -0.00164270       0.00006455
C        2.84060638      -0.00014302      13.88106312       0.00135832      -0.00064915       0.00004698
C       -0.00007823      -0.00017808      10.11892912      -0.00123468       0.00160793       0.00008416
C        0.00022403       2.45995375      10.11893851      -0.00192093       0.00161926      -0.00006734
C        2.13032398       1.23016902      10.11892867      -0.00091753       0.00008591       0.00006734
C        2.84033459       2.46000176      10.11892812       0.00164407      -0.00107926       0.00008136
C        0.71022333       1.23017280      10.11893606       0.00101357      -0.00162215      -0.00004861
C        2.84060643      -0.00014315      10.11893657       0.00135706      -0.00063972      -0.00004074
Li       1.42019147       2.45995782      11.99999982       0.00011714       0.00005672       0.00000006
