13
Lattice="4.260799885 0.0 0.0 -2.130399942 3.689960941 0.0 0.0 0.0 24.0" Properties=species:S:1:pos:R:3:forces:R:3 stress="-0.013788074119424825 3.3017583275922438e-06 -1.6852074639884797e-07 3.3017583275922438e-06 -0.013791887681500739 2.9335092891651315e-07 -1.6852074639884797e-07 2.9335092891651315e-07 -0.01971327604582657" free_energy=-112.46996003 energy=-112.46885222 pbc="T T T"
C        0.00000000       0.00000000      13.67500000      -0.11492800      -0.19776100       0.19214900
C       -0.00002000       2.45999000      13.67500000      -0.11471300       0.19868900       0.19219600
C        2.13042000       1.22997000      13.67500000       0.22873000       0.00065000       0.19214900
C        2.84053000       2.45999000      13.67500000       0.00022000       0.00011900       0.03439700
C        0.71010000       1.23001000      13.67500000       0.00085300      -0.00147800       3.80083000
C        2.84055000       0.00000000      13.67500000      -0.00021300      -0.00013100       0.03439700
C        0.00000000       0.00000000      10.32500000      -0.03928700      -0.06835200      -0.20146400
C       -0.00002000       2.45999000      10.32500000      -0.03866700       0.06697400      -0.20147400
C        2.13042000       1.22997000      10.32500000       0.07883800      -0.00015200      -0.20146400
C        3.55067000       1.22997000      10.32500000      -0.07652700       0.00118900      -0.16482500
C        1.42025000       0.00000000      10.32500000       0.03844400      -0.06658600      -0.16478700
C        1.42030000       2.45995000      10.32500000       0.03723400       0.06686900      -0.16482500
Li       0.71010000       1.23001000      12.00000000       0.00001600      -0.00002800      -3.34727800
13
Lattice="4.260799885 0.0 0.0 -2.130399942 3.689960941 0.0 0.0 0.0 24.0" Properties=species:S:1:pos:R:3:forces:R:3 stress="-0.014036860673182529 2.708814960633334e-06 -6.241509125883258e-07 2.708814960633334e-06 -0.014039987669254598 1.0797810787778037e-06 -6.241509125883258e-07 1.0797810787778037e-06 -0.00782991078332929" free_energy=-112.81369046 energy=-112.81204225 pbc="T T T"
C        0.00000000       0.00000000      13.68427000      -0.01932700      -0.03224900       0.89635400
C       -0.00002000       2.45999000      13.68427000      -0.01909100       0.03306700       0.89625200
C        2.13042000       1.22997000      13.68427000       0.03759100       0.00061300       0.89635400
C        2.84053000       2.45999000      13.67666000       0.00020100       0.00015300      -0.05791900
C        0.71010000       1.23001000      13.85836000       0.00081200      -0.00140700      -1.38389500
C        2.84055000       0.00000000      13.67666000      -0.00023300      -0.00009800      -0.05791900
C        0.00000000       0.00000000      10.31528000      -0.09862400      -0.17095800      -0.32578900
C       -0.00002000       2.45999000      10.31528000      -0.09801400       0.16976600      -0.32580500
C        2.13042000       1.22997000      10.31528000       0.19736600      -0.00006800      -0.32578900
C        3.55067000       1.22997000      10.31705000      -0.19649800       0.00109900      -0.33504700
C        1.42025000       0.00000000      10.31705000       0.09848900      -0.17058800      -0.33499500
C        1.42030000       2.45995000      10.31705000       0.09729700       0.17072200      -0.33504700
Li       0.71011000       1.23001000      11.83852000       0.00003100      -0.00005300       0.79324700
13
Lattice="4.260799885 0.0 0.0 -2.130399942 3.689960941 0.0 0.0 0.0 24.0" Properties=species:S:1:pos:R:3:forces:R:3 stress="-0.013829374185310795 2.977199853046314e-06 -4.868377118188941e-07 2.977199853046314e-06 -0.01383280701533003 8.488452411201233e-07 -4.868377118188941e-07 8.488452411201233e-07 -0.010105689840808842" free_energy=-112.86552097 energy=-112.86420069 pbc="T T T"
C        0.00000000       0.00000000      13.68146000      -0.06562600      -0.11236300       0.67410000
C       -0.00002000       2.45999000      13.68146000      -0.06539600       0.11326900       0.67403800
C        2.13042000       1.22997000      13.68146000       0.13012200       0.00065200       0.67410000
C        2.84053000       2.45999000      13.67616000       0.00021600       0.00012000      -0.02727300
C        0.71010000       1.23001000      13.80279000       0.00085100      -0.00147300      -0.20270200
C        2.84055000       0.00000000      13.67616000      -0.00021200      -0.00012700      -0.02727300
C        0.00000000       0.00000000      10.31823000      -0.07657600      -0.13282400      -0.28578200
C       -0.00002000       2.45999000      10.31823000      -0.07596400       0.13157400      -0.28580200
C        2.13042000       1.22997000      10.31823000       0.15331700      -0.00009500      -0.28578200
C        3.55067000       1.22997000      10.31946000      -0.15174400       0.00112900      -0.27654300
C        1.42025000       0.00000000      10.31946000       0.07609300      -0.13179700      -0.27649600
C        1.42030000       2.45995000      10.31946000       0.07489400       0.13197900      -0.27654300
Li       0.71011000       1.23001000      11.88746000       0.00002500      -0.00004400      -0.07804200
13
Lattice="4.260799885 0.0 0.0 -2.130399942 3.689960941 0.0 0.0 0.0 24.0" Properties=species:S:1:pos:R:3:forces:R:3 stress="-0.014521208022860199 3.02713192605338e-06 -3.9321507493064526e-07 3.02713192605338e-06 -0.01452470326797069 6.803244947212751e-07 -3.9321507493064526e-07 6.803244947212751e-07 -0.009620662166636455" free_energy=-112.92611671 energy=-112.92486052 pbc="T T T"
C        0.00000000       0.00000000      13.71258000      -0.08257900      -0.14174600       0.14559400
C       -0.00002000       2.45999000      13.71258000      -0.08234900       0.14263200       0.14557700
C        2.13042000       1.22997000      13.71258000       0.16404500       0.00064300       0.14559400
C        2.84053000       2.45999000      13.67502000       0.00020900       0.00013300       0.45720500
C        0.71010000       1.23001000      13.80488000       0.00084700      -0.00146800       0.14302500
C        2.84055000       0.00000000      13.67502000      -0.00022000      -0.00011500       0.45720500
C        0.00000000       0.00000000      10.30468000      -0.07500600      -0.13014100      -0.25706300
C       -0.00002000       2.45999000      10.30468000      -0.07439200       0.12885100      -0.25707200
C        2.13042000       1.22997000      10.30468000       0.15020800      -0.00011400      -0.25706300
C        3.55067000       1.22997000      10.30644000      -0.14942700       0.00114600      -0.25820500
C        1.42025000       0.00000000      10.30644000       0.07491900      -0.12976400      -0.25818100
C        1.42030000       2.45995000      10.30644000       0.07372100       0.12998000      -0.25820500
Li       0.71011000       1.23001000      11.87400000       0.00002200      -0.00003800       0.05158800
13
Lattice="4.260799885 0.0 0.0 -2.130399942 3.689960941 0.0 0.0 0.0 24.0" Properties=species:S:1:pos:R:3:forces:R:3 stress="-0.014630471881617911 3.04585645343103e-06 -3.557660201753457e-07 3.04585645343103e-06 -0.014633992092764909 6.179094034624426e-07 -3.557660201753457e-07 6.179094034624426e-07 -0.00887561322227977" free_energy=-112.93687511 energy=-112.93563279 pbc="T T T"
C        0.00000000       0.00000000      13.72836000      -0.09170000      -0.15755400      -0.09453400
C       -0.00002000       2.45999000      13.72836000      -0.09146800       0.15842700      -0.09454700
C        2.13042000       1.22997000      13.72836000       0.18229500       0.00063800      -0.09453400
C        2.84053000       2.45999000      13.67445000       0.00020500       0.00014000       0.69780300
C        0.71010000       1.23001000      13.80593000       0.00084400      -0.00146200       0.31605100
C        2.84055000       0.00000000      13.67445000      -0.00022400      -0.00010700       0.69780300
C        0.00000000       0.00000000      10.29781000      -0.07436500      -0.12904400      -0.25507400
C       -0.00002000       2.45999000      10.29781000      -0.07375000       0.12773800      -0.25506900
C        2.13042000       1.22997000      10.29781000       0.14893800      -0.00012000      -0.25507400
C        3.55067000       1.22997000      10.29983000      -0.14856800       0.00115200      -0.26182000
C        1.42025000       0.00000000      10.29984000       0.07448600      -0.12901300      -0.26181300
C        1.42030000       2.45995000      10.29983000       0.07328700       0.12924000      -0.26182000
Li       0.71011000       1.23001000      11.86717000       0.00002000      -0.00003500       0.12262800
13
Lattice="4.260799885 0.0 0.0 -2.130399942 3.689960941 0.0 0.0 0.0 24.0" Properties=species:S:1:pos:R:3:forces:R:3 stress="-0.014610124561867532 3.4078639827322583e-06 -2.0097659385344093e-06 3.4078639827322583e-06 -0.014614056712616839 3.482762092242858e-06 -2.0097659385344093e-06 3.482762092242858e-06 -0.007719929151022101" free_energy=-112.99034952 energy=-112.98922383 pbc="T T T"
C        0.00000000       0.00000000      13.74259000      -0.08885000      -0.15312900      -0.02763100
C       -0.00002000       2.45999000      13.74258000      -0.08861800       0.15349100      -0.02762100
C        2.13042000       1.22997000      13.74259000       0.17703900       0.00038100      -0.02763100
C        2.84053000       2.45999000      13.69808000       0.00036700      -0.00014700       0.54988600
C        0.71010000       1.23001000      13.81810000       0.00101000      -0.00175000       0.21665900
C        2.84055000       0.00000000      13.69808000      -0.00005600      -0.00039200       0.54988600
C        0.00000000       0.00000000      10.28131000      -0.06815300      -0.11884700      -0.21753000
C       -0.00002000       2.45999000      10.28131000      -0.06753200       0.11696900      -0.21752100
C        2.13042000       1.22997000      10.28131000       0.13700100      -0.00040100      -0.21753000
C        3.55067000       1.22997000      10.28340000      -0.13601000       0.00359000      -0.23775800
C        1.42025000       0.00000000      10.28341000       0.06873300      -0.11905000      -0.23870100
C        1.42030000       2.45995000      10.28340000       0.06489600       0.11958300      -0.23775800
Li       0.71011000       1.23001000      11.86386000       0.00017200      -0.00029800       0.13324800
13
Lattice="4.260799885 0.0 0.0 -2.130399942 3.689960941 0.0 0.0 0.0 24.0" Properties=species:S:1:pos:R:3:forces:R:3 stress="-0.015534067640790282 3.2580677637110607e-06 -2.2469432853179729e-07 3.2580677637110607e-06 -0.015537825029284063 3.86973565804762e-07 -2.2469432853179729e-07 3.86973565804762e-07 -0.004817883309360546" free_energy=-113.11284269 energy=-113.1119703 pbc="T T T"
C        0.00000000       0.00000000      13.78527000      -0.08319300      -0.14271200       0.21452800
C       -0.00002000       2.45999000      13.78526000      -0.08295900       0.14368900       0.21459000
C        2.13042000       1.22997000      13.78527000       0.16518900       0.00069100       0.21452800
C        2.84053000       2.45999000      13.76898000       0.00023100       0.00008900       0.15215600
C        0.71010000       1.23001000      13.85460000       0.00086800      -0.00150400       0.00843800
C        2.84055000       0.00000000      13.76898000      -0.00019200      -0.00015600       0.15215600
C        0.00000000       0.00000000      10.23182000      -0.05261400      -0.09144400      -0.17074400
C       -0.00002000       2.45999000      10.23181000      -0.05198300       0.09003800      -0.17070900
C        2.13042000       1.22997000      10.23182000       0.10550000      -0.00015700      -0.17074400
C        3.55067000       1.22997000      10.23409000      -0.10606400       0.00119900      -0.20504800
C        1.42025000       0.00000000      10.23410000       0.05321900      -0.09217800      -0.20513100
C        1.42030000       2.45995000      10.23409000       0.05199400       0.09245400      -0.20504800
Li       0.71011000       1.23000000      11.85392000       0.00000500      -0.00000800       0.17102800
13
Lattice="4.260799885 0.0 0.0 -2.130399942 3.689960941 0.0 0.0 0.0 24.0" Properties=species:S:1:pos:R:3:forces:R:3 stress="-0.015088392681656586 3.432830019235792e-06 -1.1234716426589864e-07 3.432830019235792e-06 -0.015092356039951524 1.93486782902381e-07 -1.1234716426589864e-07 1.93486782902381e-07 0.0007929462853887128" free_energy=-113.21967455 energy=-113.21903853 pbc="T T T"
C        0.00000000       0.00000000      13.87064000      -0.08994200      -0.15430200       0.67415300
C       -0.00002000       2.45999000      13.87062000      -0.08971900       0.15539700       0.67433500
C        2.13042000       1.22997000      13.87064000       0.17860000       0.00074100       0.67415300
C        2.84053000       2.45999000      13.91077000       0.00027300       0.00003600      -0.66096400
C        0.71010000       1.23001000      13.92760000       0.00089600      -0.00155200      -0.36912000
C        2.84055000       0.00000000      13.91077000      -0.00016800      -0.00021900      -0.66096400
C        0.00000000       0.00000000      10.13283000      -0.02792800      -0.04871600      -0.05693200
C       -0.00002000       2.45999000      10.13282000      -0.02728200       0.04725400      -0.05685500
C        2.13042000       1.22997000      10.13283000       0.05615400      -0.00017100      -0.05693200
C        3.55067000       1.22997000      10.13548000      -0.05743000       0.00122200      -0.11738800
C        1.42025000       0.00000000      10.13550000       0.02890000      -0.05005500      -0.11758000
C        1.42030000       2.45995000      10.13548000       0.02765700       0.05034700      -0.11738800
Li       0.71012000       1.22998000      11.83404000      -0.00001100       0.00001900       0.19148200
13
Lattice="4.260799885 0.0 0.0 -2.130399942 3.689960941 0.0 0.0 0.0 24.0" Properties=species:S:1:pos:R:3:forces:R:3 stress="-0.01495406292224933 1.295113143620776e-05 4.007048858817052e-06 1.295113143620776e-05 -0.014969017578114944 -6.940558147982182e-06 4.007048858817052e-06 -6.940558147982182e-06 0.001333130175706531" free_energy=-113.25329784 energy=-113.25267652 pbc="T T T"
C        0.00000000       0.00000000      13.89571000      -0.09361300      -0.16195300       0.46077100
C       -0.00002000       2.45999000      13.89569000      -0.09339600       0.16176700       0.46095400
C        2.13042000       1.22997000      13.89571000       0.18706200       0.00009500       0.46077100
C        2.84053000       2.45999000      13.92497000       0.00064600      -0.00060900      -0.46837300
C        0.71010000       1.23001000      13.93446000       0.00127400      -0.00220700      -0.15874000
C        2.84055000       0.00000000      13.92497000       0.00020400      -0.00086400      -0.46837300
C        0.00000000       0.00000000      10.11493000      -0.02307600      -0.04160700      -0.05121000
C       -0.00002000       2.45999000      10.11493000      -0.02242800       0.03884600      -0.05113800
C        2.13042000       1.22997000      10.11493000       0.04757000      -0.00081900      -0.05121000
C        3.55067000       1.22997000      10.11671000      -0.04926900       0.00519600      -0.09125300
C        1.42025000       0.00000000      10.11673000       0.02452800      -0.04248300      -0.09301600
C        1.42030000       2.45995000      10.11671000       0.02013500       0.04526600      -0.09125300
Li       0.71012000       1.22998000      11.83357000       0.00036300      -0.00062800       0.14206800
13
Lattice="4.260799885 0.0 0.0 -2.130399942 3.689960941 0.0 0.0 0.0 24.0" Properties=species:S:1:pos:R:3:forces:R:3 stress="-0.015646046556017753 3.4890036013687416e-06 4.9932073007066075e-08 3.4890036013687416e-06 -0.015650072329403946 -9.362263688824886e-08 4.9932073007066075e-08 -9.362263688824886e-08 0.002856551481642991" free_energy=-113.28329968 energy=-113.28268267 pbc="T T T"
C        0.00000000       0.00000000      13.95230000      -0.09943000      -0.17073500      -0.01650400
C       -0.00002000       2.45999000      13.95228000      -0.09922000       0.17185500      -0.01631400
C        2.13042000       1.22997000      13.95230000       0.19757600       0.00074200      -0.01650400
C        2.84053000       2.45999000      13.95703000       0.00027200       0.00003500      -0.08998200
C        0.71010000       1.23001000      13.94997000       0.00091200      -0.00158000       0.31988100
C        2.84055000       0.00000000      13.95703000      -0.00016600      -0.00021800      -0.08998200
C        0.00000000       0.00000000      10.07451000      -0.01448100      -0.02542200      -0.03409100
C       -0.00002000       2.45999000      10.07451000      -0.01383200       0.02395800      -0.03404000
C        2.13042000       1.22997000      10.07451000       0.02925600      -0.00017000      -0.03409100
C        3.55067000       1.22997000      10.07434000      -0.02889800       0.00122700      -0.00662300
C        1.42025000       0.00000000      10.07435000       0.01463500      -0.02534800      -0.00676800
C        1.42030000       2.45995000      10.07434000       0.01338600       0.02564000      -0.00662300
Li       0.71013000       1.22998000      11.83251000      -0.00000900       0.00001600       0.03164100
13
Lattice="4.260799885 0.0 0.0 -2.130399942 3.689960941 0.0 0.0 0.0 24.0" Properties=species:S:1:pos:R:3:forces:R:3 stress="-0.01563609134896197 3.4890036013687416e-06 5.617358213294932e-08 3.4890036013687416e-06 -0.01564011712234816 -9.362263688824886e-08 5.617358213294932e-08 -9.362263688824886e-08 0.00300705923270454" free_energy=-113.28331891 energy=-113.28270144 pbc="T T T"
C        0.00000000       0.00000000      13.95353000      -0.09952700      -0.17090200      -0.02625600
C       -0.00002000       2.45999000      13.95351000      -0.09931700       0.17202200      -0.02606700
C        2.13042000       1.22997000      13.95353000       0.19776900       0.00074200      -0.02625600
C        2.84053000       2.45999000      13.95772000       0.00027200       0.00003500      -0.08224100
C        0.71010000       1.23001000      13.95030000       0.00091200      -0.00158000       0.32864400
C        2.84055000       0.00000000      13.95772000      -0.00016600      -0.00021800      -0.08224100
C        0.00000000       0.00000000      10.07364000      -0.01426400      -0.02504600      -0.02825300
C       -0.00002000       2.45999000      10.07364000      -0.01361500       0.02358100      -0.02820200
C        2.13042000       1.22997000      10.07364000       0.02882200      -0.00017000      -0.02825300
C        3.55067000       1.22997000      10.07342000      -0.02856100       0.00122700      -0.00943100
C        1.42025000       0.00000000      10.07344000       0.01446600      -0.02505600      -0.00957600
C        1.42030000       2.45995000      10.07342000       0.01321700       0.02534800      -0.00943100
Li       0.71013000       1.22998000      11.83249000      -0.00000900       0.00001600       0.02756200
13
Lattice="4.260799885 0.0 0.0 -2.130399942 3.689960941 0.0 0.0 0.0 24.0" Properties=species:S:1:pos:R:3:forces:R:3 stress="-0.01563072365111371 3.4890036013687416e-06 3.744905475529955e-08 3.4890036013687416e-06 -0.01563475566600903 -6.241509125883259e-08 3.744905475529955e-08 -6.241509125883259e-08 0.003261157310728373" free_energy=-113.28591526 energy=-113.28529703 pbc="T T T"
C        0.00000000       0.00000000      13.95560000      -0.09806700      -0.16837200      -0.01777600
C       -0.00002000       2.45999000      13.95559000      -0.09785500       0.16949000      -0.01762800
C        2.13042000       1.22997000      13.95560000       0.19484800       0.00074300      -0.01777600
C        2.84053000       2.45999000      13.95738000       0.00027200       0.00003500      -0.05706700
C        0.71010000       1.23001000      13.95843000       0.00091200      -0.00157900       0.24374600
C        2.84055000       0.00000000      13.95738000      -0.00016700      -0.00021800      -0.05706700
C        0.00000000       0.00000000      10.07110000      -0.01355500      -0.02381800      -0.02468200
C       -0.00002000       2.45999000      10.07110000      -0.01290700       0.02235600      -0.02464200
C        2.13042000       1.22997000      10.07110000       0.02740400      -0.00017000      -0.02468200
C        3.55067000       1.22997000      10.07121000      -0.02730200       0.00122700      -0.01454100
C        1.42025000       0.00000000      10.07123000       0.01383600      -0.02396400      -0.01465900
C        1.42030000       2.45995000      10.07121000       0.01258900       0.02425800      -0.01454100
Li       0.71013000       1.22998000      11.83306000      -0.00000800       0.00001400       0.04131200
13
Lattice="4.260799885 0.0 0.0 -2.130399942 3.689960941 0.0 0.0 0.0 24.0" Properties=species:S:1:pos:R:3:forces:R:3 stress="-0.015709129488753058 3.495245110494625e-06 6.241509125883259e-09 3.495245110494625e-06 -0.015713167745157502 -1.2483018251766519e-08 6.241509125883259e-09 -1.2483018251766519e-08 0.0034241355970234364" free_energy=-113.28851927 energy=-113.2878983 pbc="T T T"
C        0.00000000       0.00000000      13.95866000      -0.09561600      -0.16412600      -0.03000300
C       -0.00002000       2.45999000      13.95865000      -0.09540200       0.16524100      -0.02991700
C        2.13042000       1.22997000      13.95866000       0.18994500       0.00074300      -0.03000300
C        2.84053000       2.45999000      13.95688000       0.00027200       0.00003600      -0.00928100
C        0.71010000       1.23001000      13.97041000       0.00091100      -0.00157800       0.13969900
C        2.84055000       0.00000000      13.95688000      -0.00016800      -0.00021800      -0.00928100
C        0.00000000       0.00000000      10.06736000      -0.01255100      -0.02208100      -0.00768700
C       -0.00002000       2.45999000      10.06736000      -0.01190600       0.02062200      -0.00766300
C        2.13042000       1.22997000      10.06736000       0.02539800      -0.00017100      -0.00768700
C        3.55067000       1.22997000      10.06796000      -0.02552300       0.00122600      -0.02040800
C        1.42025000       0.00000000      10.06797000       0.01294500      -0.02242100      -0.02048300
C        1.42030000       2.45995000      10.06796000       0.01169900       0.02271700      -0.02040800
Li       0.71012000       1.22998000      11.83390000      -0.00000600       0.00001000       0.05312300
13
Lattice="4.260799885 0.0 0.0 -2.130399942 3.689960941 0.0 0.0 0.0 24.0" Properties=species:S:1:pos:R:3:forces:R:3 stress="-0.015998348538628235 3.495245110494625e-06 -4.9932073007066075e-08 3.495245110494625e-06 -0.01600238679503268 8.113961863648234e-08 -4.9932073007066075e-08 8.113961863648234e-08 0.0038502621495748648" free_energy=-113.28937596 energy=-113.28874273 pbc="T T T"
C        0.00000000       0.00000000      13.96477000      -0.08967700      -0.15384200      -0.01008600
C       -0.00002000       2.45999000      13.96477000      -0.08946300       0.15495500      -0.01012400
C        2.13042000       1.22997000      13.96477000       0.17806900       0.00074200      -0.01008600
C        2.84053000       2.45999000      13.95588000       0.00027400       0.00004000       0.05865700
C        0.71010000       1.23001000      13.99435000       0.00090900      -0.00157400      -0.10805100
C        2.84055000       0.00000000      13.95588000      -0.00017200      -0.00021700       0.05865700
C        0.00000000       0.00000000      10.05988000      -0.01068300      -0.01885300       0.00442900
C       -0.00002000       2.45999000      10.05988000      -0.01004700       0.01740100       0.00441800
C        2.13042000       1.22997000      10.05988000       0.02166900      -0.00017500       0.00442900
C        3.55067000       1.22997000      10.06146000      -0.02220700       0.00122100      -0.02399500
C        1.42025000       0.00000000      10.06145000       0.01128300      -0.01954300      -0.02398000
C        1.42030000       2.45995000      10.06146000       0.01004600       0.01984200      -0.02399500
Li       0.71012000       1.22998000      11.83558000      -0.00000200       0.00000400       0.07972600
13
Lattice="4.260799885 0.0 0.0 -2.130399942 3.689960941 0.0 0.0 0.0 24.0" Properties=species:S:1:pos:R:3:forces:R:3 stress="-0.015732766083812775 3.4890036013687416e-06 -2.4966036503533037e-08 3.4890036013687416e-06 -0.015736798098708097 4.369056388118281e-08 -2.4966036503533037e-08 4.369056388118281e-08 0.003697020617516179" free_energy=-113.28964095 energy=-113.28901261 pbc="T T T"
C        0.00000000       0.00000000      13.96228000      -0.09245600      -0.15865500      -0.01719300
C       -0.00002000       2.45999000      13.96228000      -0.09224200       0.15976700      -0.01718000
C        2.13042000       1.22997000      13.96228000       0.18362700       0.00074200      -0.01719300
C        2.84053000       2.45999000      13.95628000       0.00027300       0.00004000       0.03210300
C        0.71010000       1.23001000      13.98460000       0.00091000      -0.00157700       0.00642700
C        2.84055000       0.00000000      13.95628000      -0.00017100      -0.00021600       0.03210300
C        0.00000000       0.00000000      10.06293000      -0.01146400      -0.02020300      -0.00565900
C       -0.00002000       2.45999000      10.06293000      -0.01082600       0.01875000      -0.00565800
C        2.13042000       1.22997000      10.06293000       0.02322900      -0.00017300      -0.00565900
C        3.55067000       1.22997000      10.06411000      -0.02361100       0.00122200      -0.02384600
C        1.42025000       0.00000000      10.06411000       0.01198700      -0.02076200      -0.02386700
C        1.42030000       2.45995000      10.06411000       0.01074700       0.02105800      -0.02384600
Li       0.71012000       1.22998000      11.83489000      -0.00000400       0.00000700       0.06946800
13
Lattice="4.260799885 0.0 0.0 -2.130399942 3.689960941 0.0 0.0 0.0 24.0" Properties=species:S:1:pos:R:3:forces:R:3 stress="-0.01573089363107501 3.4890036013687416e-06 -3.1207545629416294e-08 3.4890036013687416e-06 -0.01573492564597033 4.9932073007066075e-08 -3.1207545629416294e-08 4.9932073007066075e-08 0.003743182819011211" free_energy=-113.28966336 energy=-113.28903503 pbc="T T T"
C        0.00000000       0.00000000      13.96270000      -0.09194300      -0.15776500      -0.01616500
C       -0.00002000       2.45999000      13.96270000      -0.09172800       0.15887800      -0.01616100
C        2.13042000       1.22997000      13.96270000       0.18260000       0.00074200      -0.01616500
C        2.84053000       2.45999000      13.95622000       0.00027300       0.00003900       0.03643600
C        0.71010000       1.23001000      13.98624000       0.00091000      -0.00157700      -0.00711200
C        2.84055000       0.00000000      13.95622000      -0.00017100      -0.00021700       0.03643600
C        0.00000000       0.00000000      10.06241000      -0.01131000      -0.01993700      -0.00487900
C       -0.00002000       2.45999000      10.06242000      -0.01067200       0.01848500      -0.00487900
C        2.13042000       1.22997000      10.06241000       0.02292100      -0.00017400      -0.00487900
C        3.55067000       1.22997000      10.06366000      -0.02333000       0.00122200      -0.02474600
C        1.42025000       0.00000000      10.06366000       0.01184600      -0.02051800      -0.02476200
C        1.42030000       2.45995000      10.06366000       0.01060700       0.02081500      -0.02474600
Li       0.71012000       1.22998000      11.83501000      -0.00000400       0.00000600       0.07162400
13
Lattice="4.260799885 0.0 0.0 -2.130399942 3.689960941 0.0 0.0 0.0 24.0" Properties=species:S:1:pos:R:3:forces:R:3 stress="-0.015868250522408322 -3.6762488751452395e-06 -6.241509125883259e-09 -3.6762488751452395e-06 -0.015864006296202722 1.2483018251766519e-08 -6.241509125883259e-09 1.2483018251766519e-08 0.0037477640867096098" free_energy=-113.28966509 energy=-113.28903656 pbc="T T T"
C        0.00000000       0.00000000      13.96292000      -0.09171200      -0.15737500      -0.01711300
C       -0.00002000       2.45999000      13.96292000      -0.09149800       0.15847900      -0.01711300
C        2.13042000       1.22997000      13.96292000       0.18214700       0.00073700      -0.01711300
C        2.84053000       2.45999000      13.95618000       0.00027600       0.00003500       0.03720100
C        0.71010000       1.23001000      13.98709000       0.00091300      -0.00158100      -0.01564400
C        2.84055000       0.00000000      13.95618000      -0.00016800      -0.00022200       0.03720100
C        0.00000000       0.00000000      10.06215000      -0.01124100      -0.01685400       0.00130900
C       -0.00002000       2.45999000      10.06215000      -0.00806400       0.01396800       0.00060100
C        2.13042000       1.22997000      10.06215000       0.02021700       0.00130800       0.00130900
C        3.55067000       1.22997000      10.06343000      -0.02319600       0.00121600      -0.02720700
C        1.42025000       0.00000000      10.06343000       0.01178300      -0.02040900      -0.02721900
C        1.42030000       2.45995000      10.06343000       0.01054500       0.02069600      -0.02720700
Li       0.71012000       1.22998000      11.83507000      -0.00000100       0.00000200       0.07099100
13