13
Lattice="4.260799885 0.0 0.0 -2.130399942 3.689960941 0.0 0.0 0.0 24.0" Properties=species:S:1:pos:R:3:forces:R:3 stress="-0.014446827958607049 2.9085432526615983e-06 -0.0 2.9085432526615983e-06 -0.01444806377741397 -0.0 -0.0 -0.0 0.004733641660688499" free_energy=-113.42221442 energy=-113.42002428 pbc="T T T"
C        0.00000000       0.00000000      13.87500000      -0.00767600      -0.01305900       0.00465200
C       -0.00002000       2.45999000      13.87500000       0.01636800      -0.00016600       0.00463200
C        2.13042000       1.22997000      13.87500000      -0.00953900       0.01420000       0.00462000
C        2.84053000       2.45999000      13.87500000      -0.01546800      -0.00030500       0.00465500
C        0.71010000       1.23001000      13.87500000       0.00951500       0.01256800       0.00462700
C        2.84055000       0.00000000      13.87500000       0.00680600      -0.01320700       0.00464400
C        0.00000000       0.00000000      10.12500000      -0.00767600      -0.01305900      -0.00465200
C       -0.00002000       2.45999000      10.12500000       0.01636800      -0.00016600      -0.00463200
C        2.13042000       1.22997000      10.12500000      -0.00953900       0.01420000      -0.00462000
C        2.84053000       2.45999000      10.12500000      -0.01546800      -0.00030500      -0.00465500
C        0.71010000       1.23001000      10.12500000       0.00951500       0.01256800      -0.00462700
C        2.84055000       0.00000000      10.12500000       0.00680600      -0.01320700      -0.00464400
Li       1.42030000       2.45999000      12.00000000      -0.00001300      -0.00006400       0.00000000
