17
Lattice="4.920000076 0.0 0.0 -2.460000038 4.260845053 0.0 0.0 0.0 24.0" Properties=species:S:1:pos:R:3:forces:R:3 stress="-0.011593965208857453 6.652200426366377e-05 -0.0 6.652200426366377e-05 -0.011517150956045209 -0.0 -0.0 -0.0 0.0043597253319750855" free_energy=-150.62892707 energy=-150.62787914 pbc="T T T"
C        0.00000000       0.00000000      13.87500000      -0.22416500      -0.12801400       0.01109900
C        3.69000000       2.13042000      13.87500000      -0.00121600       0.00070200      -0.11675800
C        2.46000000       0.00000000      13.87500000       0.22172300      -0.12801200       0.01107600
C        1.23000000       2.13042000      13.87500000      -0.00121900       0.25813900       0.01109900
C       -0.00005000       1.42031000      13.87500000      -0.22170200       0.12800000       0.01226000
C       -1.23005000       3.55073000      13.87500000       0.00122600      -0.25812000       0.01226300
C        2.45995000       1.42031000      13.87500000       0.22415100       0.12799800       0.01226300
C        1.22995000       3.55073000      13.87500000       0.00120700      -0.00069700      -0.11561500
C        0.00000000       0.00000000      10.12500000      -0.22416500      -0.12801400      -0.01109900
C        3.69000000       2.13042000      10.12500000      -0.00121600       0.00070200       0.11675800
C        2.46000000       0.00000000      10.12500000       0.22172300      -0.12801200      -0.01107600
C        1.23000000       2.13042000      10.12500000      -0.00121900       0.25813900      -0.01109900
C       -0.00005000       1.42031000      10.12500000      -0.22170200       0.12800000      -0.01226000
C       -1.23005000       3.55073000      10.12500000       0.00122600      -0.25812000      -0.01226300
C        2.45995000       1.42031000      10.12500000       0.22415100       0.12799800      -0.01226300
C        1.22995000       3.55073000      10.12500000       0.00120700      -0.00069700       0.11561500
Li       1.22995000       0.71016000      12.00000000      -0.00000900       0.00000500       0.00000000
17
Lattice="4.920000076 0.0 0.0 -2.460000038 4.260845053 0.0 0.0 0.0 24.0" Properties=species:S:1:pos:R:3:forces:R:3 stress="-0.011584540530077368 6.6509521245412e-05 -0.0 6.6509521245412e-05 -0.011507745001792502 -0.0 -0.0 -0.0 0.00447759623181739" free_energy=-150.63056607 energy=-150.62951599 pbc="T T T"
C        0.00000000       0.00000000      13.87554000      -0.22405300      -0.12795000      -0.01222400
C        3.69000000       2.13042000      13.86937000      -0.00121400       0.00070100      -0.03932700
C        2.46000000       0.00000000      13.87553000       0.22161200      -0.12794800      -0.01220000
C        1.23000000       2.13042000      13.87554000      -0.00121900       0.25801000      -0.01222400
C       -0.00005000       1.42031000      13.87559000      -0.22158900       0.12793400      -0.01262300
C       -1.23005000       3.55073000      13.87559000       0.00122600      -0.25798800      -0.01266100
C        2.45995000       1.42031000      13.87559000       0.22403700       0.12793200      -0.01266100
C        1.22995000       3.55073000      13.86942000       0.00120400      -0.00069500      -0.04004500
C        0.00000000       0.00000000      10.12446000      -0.22405300      -0.12795000       0.01222400
C        3.69000000       2.13042000      10.13063000      -0.00121400       0.00070100       0.03932700
C        2.46000000       0.00000000      10.12447000       0.22161200      -0.12794800       0.01220000
C        1.23000000       2.13042000      10.12446000      -0.00121900       0.25801000       0.01222400
C       -0.00005000       1.42031000      10.12441000      -0.22158900       0.12793400       0.01262300
C       -1.23005000       3.55073000      10.12441000       0.00122600      -0.25798800       0.01266100
C        2.45995000       1.42031000      10.12441000       0.22403700       0.12793200       0.01266100
C        1.22995000       3.55073000      10.13058000       0.00120400      -0.00069500       0.04004500
Li       1.22995000       0.71016000      12.00000000      -0.00000900       0.00000500       0.00000000
17
Lattice="4.920000076 0.0 0.0 -2.460000038 4.260845053 0.0 0.0 0.0 24.0" Properties=species:S:1:pos:R:3:forces:R:3 stress="-0.011585614069647022 6.649079671803436e-05 -0.0 6.649079671803436e-05 -0.011508831024380406 -0.0 -0.0 -0.0 0.00449154600471374" free_energy=-150.63076918 energy=-150.62971797 pbc="T T T"
C        0.00000000       0.00000000      13.87577000      -0.22415400      -0.12800900      -0.02239000
C        3.69000000       2.13042000      13.86695000      -0.00121400       0.00070100      -0.01200700
C        2.46000000       0.00000000      13.87576000       0.22171700      -0.12800800      -0.02234500
C        1.23000000       2.13042000      13.87577000      -0.00121800       0.25812700      -0.02239000
C       -0.00005000       1.42031000      13.87585000      -0.22169500       0.12799600      -0.02345700
C       -1.23005000       3.55073000      13.87585000       0.00122700      -0.25811000      -0.02351300
C        2.45995000       1.42031000      13.87585000       0.22414300       0.12799200      -0.02351300
C        1.22995000       3.55073000      13.86703000       0.00119900      -0.00069200      -0.01360200
C        0.00000000       0.00000000      10.12423000      -0.22415400      -0.12800900       0.02239000
C        3.69000000       2.13042000      10.13305000      -0.00121400       0.00070100       0.01200700
C        2.46000000       0.00000000      10.12424000       0.22171700      -0.12800800       0.02234500
C        1.23000000       2.13042000      10.12423000      -0.00121800       0.25812700       0.02239000
C       -0.00005000       1.42031000      10.12415000      -0.22169500       0.12799600       0.02345700
C       -1.23005000       3.55073000      10.12415000       0.00122700      -0.25811000       0.02351300
C        2.45995000       1.42031000      10.12415000       0.22414300       0.12799200       0.02351300
C        1.22995000       3.55073000      10.13297000       0.00119900      -0.00069200       0.01360200
Li       1.22995000       0.71016000      12.00000000      -0.00000800       0.00000500      -0.00000000
17
Lattice="4.920000076 0.0 0.0 -2.460000038 4.260845053 0.0 0.0 0.0 24.0" Properties=species:S:1:pos:R:3:forces:R:3 stress="-0.011585514205501007 6.649079671803436e-05 -0.0 6.649079671803436e-05 -0.011508737401743517 -0.0 -0.0 -0.0 0.004493967710254582" free_energy=-150.63077501 energy=-150.62972355 pbc="T T T"
C        0.00000000       0.00000000      13.87581000      -0.22419000      -0.12802900      -0.02442200
C        3.69000000       2.13042000      13.86648000      -0.00121400       0.00070100      -0.00674100
C        2.46000000       0.00000000      13.87581000       0.22175200      -0.12802900      -0.02437400
C        1.23000000       2.13042000      13.87581000      -0.00121800       0.25816900      -0.02442200
C       -0.00005000       1.42031000      13.87589000      -0.22173200       0.12801700      -0.02562000
C       -1.23005000       3.55073000      13.87589000       0.00122700      -0.25815200      -0.02567900
C        2.45995000       1.42031000      13.87589000       0.22418000       0.12801400      -0.02567900
C        1.22995000       3.55073000      13.86656000       0.00119900      -0.00069200      -0.00851400
C        0.00000000       0.00000000      10.12419000      -0.22419000      -0.12802900       0.02442200
C        3.69000000       2.13042000      10.13352000      -0.00121400       0.00070100       0.00674100
C        2.46000000       0.00000000      10.12419000       0.22175200      -0.12802900       0.02437400
C        1.23000000       2.13042000      10.12419000      -0.00121800       0.25816900       0.02442200
C       -0.00005000       1.42031000      10.12411000      -0.22173200       0.12801700       0.02562000
C       -1.23005000       3.55073000      10.12411000       0.00122700      -0.25815200       0.02567900
C        2.45995000       1.42031000      10.12411000       0.22418000       0.12801400       0.02567900
C        1.22995000       3.55073000      10.13344000       0.00119900      -0.00069200       0.00851400
Li       1.22995000       0.71016000      12.00000000      -0.00000800       0.00000500       0.00000000
17
Lattice="4.920000076 0.0 0.0 -2.460000038 4.260845053 0.0 0.0 0.0 24.0" Properties=species:S:1:pos:R:3:forces:R:3 stress="-0.011582543247157087 6.645958917240494e-05 -0.0 6.645958917240494e-05 -0.011505803892454352 -0.0 -0.0 -0.0 0.004460282285502191" free_energy=-150.63120542 energy=-150.63014956 pbc="T T T"
C        0.00000000       0.00000000      13.87459000      -0.22457100      -0.12825100      -0.02669000
C        3.69000000       2.13042000      13.86526000      -0.00121100       0.00069900      -0.01003200
C        2.46000000       0.00000000      13.87459000       0.22213700      -0.12825100      -0.02667600
C        1.23000000       2.13042000      13.87459000      -0.00121700       0.25861000      -0.02669000
C       -0.00005000       1.42031000      13.87462000      -0.22211800       0.12824000      -0.02613400
C       -1.23005000       3.55073000      13.87462000       0.00122600      -0.25859500      -0.02615200
C        2.45995000       1.42031000      13.87462000       0.22456300       0.12823600      -0.02615200
C        1.22995000       3.55073000      13.86526000       0.00119500      -0.00069000      -0.00989200
C        0.00000000       0.00000000      10.12541000      -0.22457100      -0.12825100       0.02669000
C        3.69000000       2.13042000      10.13474000      -0.00121100       0.00069900       0.01003200
C        2.46000000       0.00000000      10.12541000       0.22213700      -0.12825100       0.02667600
C        1.23000000       2.13042000      10.12541000      -0.00121700       0.25861000       0.02669000
C       -0.00005000       1.42031000      10.12538000      -0.22211800       0.12824000       0.02613400
C       -1.23005000       3.55073000      10.12538000       0.00122600      -0.25859500       0.02615200
C        2.45995000       1.42031000      10.12538000       0.22456300       0.12823600       0.02615200
C        1.22995000       3.55073000      10.13474000       0.00119500      -0.00069000       0.00989200
Li       1.22995000       0.71016000      12.00000000      -0.00000800       0.00000500       0.00000000
17
Lattice="4.920000076 0.0 0.0 -2.460000038 4.260845053 0.0 0.0 0.0 24.0" Properties=species:S:1:pos:R:3:forces:R:3 stress="-0.01151102179408359 6.636596653551668e-05 -0.0 6.636596653551668e-05 -0.011434382303526872 -0.0 -0.0 -0.0 0.0046432334010000804" free_energy=-150.63217558 energy=-150.63110924 pbc="T T T"
C        0.00000000       0.00000000      13.87094000      -0.22569400      -0.12890300      -0.02130800
C        3.69000000       2.13042000      13.86159000      -0.00120300       0.00069500      -0.01965300
C        2.46000000       0.00000000      13.87095000       0.22326800      -0.12890400      -0.02140400
C        1.23000000       2.13042000      13.87094000      -0.00121400       0.25990800      -0.02130800
C       -0.00005000       1.42031000      13.87081000      -0.22325900       0.12889900      -0.01554200
C       -1.23005000       3.55073000      13.87079000       0.00122400      -0.25990500      -0.01543800
C        2.45995000       1.42031000      13.87079000       0.22569600       0.12889200      -0.01543800
C        1.22995000       3.55073000      13.86133000       0.00118600      -0.00068500      -0.01370000
C        0.00000000       0.00000000      10.12906000      -0.22569400      -0.12890300       0.02130800
C        3.69000000       2.13042000      10.13841000      -0.00120300       0.00069500       0.01965300
C        2.46000000       0.00000000      10.12905000       0.22326800      -0.12890400       0.02140400
C        1.23000000       2.13042000      10.12906000      -0.00121400       0.25990800       0.02130800
C       -0.00005000       1.42031000      10.12919000      -0.22325900       0.12889900       0.01554200
C       -1.23005000       3.55073000      10.12921000       0.00122400      -0.25990500       0.01543800
C        2.45995000       1.42031000      10.12921000       0.22569600       0.12889200       0.01543800
C        1.22995000       3.55073000      10.13867000       0.00118600      -0.00068500       0.01370000
Li       1.22995000       0.71016000      12.00000000      -0.00000800       0.00000400      -0.00000000
17
Lattice="4.920000076 0.0 0.0 -2.460000038 4.260845053 0.0 0.0 0.0 24.0" Properties=species:S:1:pos:R:3:forces:R:3 stress="-0.011618650377450322 6.623489484387314e-05 -0.0 6.623489484387314e-05 -0.011542166924621747 -0.0 -0.0 -0.0 0.004264498627241485" free_energy=-150.6344002 energy=-150.6333275 pbc="T T T"
C        0.00000000       0.00000000      13.86364000      -0.22798200      -0.13022500      -0.03627600
C        3.69000000       2.13042000      13.85427000      -0.00119300       0.00068900      -0.00399500
C        2.46000000       0.00000000      13.86366000       0.22556200      -0.13022800      -0.03658900
C        1.23000000       2.13042000      13.86364000      -0.00121300       0.26255100      -0.03627600
C       -0.00005000       1.42031000      13.86317000      -0.22557700       0.13023700      -0.02039800
C       -1.23005000       3.55073000      13.86314000       0.00122200      -0.26256800      -0.02005300
C        2.45995000       1.42031000      13.86314000       0.22800200       0.13022500      -0.02005300
C        1.22995000       3.55073000      13.85349000       0.00118200      -0.00068300       0.01335500
C        0.00000000       0.00000000      10.13636000      -0.22798200      -0.13022500       0.03627600
C        3.69000000       2.13042000      10.14573000      -0.00119300       0.00068900       0.00399500
C        2.46000000       0.00000000      10.13634000       0.22556200      -0.13022800       0.03658900
C        1.23000000       2.13042000      10.13636000      -0.00121300       0.26255100       0.03627600
C       -0.00005000       1.42031000      10.13683000      -0.22557700       0.13023700       0.02039800
C       -1.23005000       3.55073000      10.13686000       0.00122200      -0.26256800       0.02005300
C        2.45995000       1.42031000      10.13686000       0.22800200       0.13022500       0.02005300
C        1.22995000       3.55073000      10.14651000       0.00118200      -0.00068300      -0.01335500
Li       1.22995000       0.71016000      12.00000000      -0.00000400       0.00000200      -0.00000000
17
Lattice="4.920000076 0.0 0.0 -2.460000038 4.260845053 0.0 0.0 0.0 24.0" Properties=species:S:1:pos:R:3:forces:R:3 stress="-0.012065373910117165 6.615375522523665e-05 -0.0 6.615375522523665e-05 -0.011988984079925479 -0.0 -0.0 -0.0 0.0030751478557588" free_energy=-150.63529466 energy=-150.63427242 pbc="T T T"
C        0.00000000       0.00000000      13.84904000      -0.23302500      -0.13309500      -0.00647000
C        3.69000000       2.13042000      13.83961000      -0.00121200       0.00070000      -0.00729000
C        2.46000000       0.00000000      13.84909000       0.23053800      -0.13310100      -0.00722200
C        1.23000000       2.13042000      13.84904000      -0.00124900       0.26835400      -0.00647000
C       -0.00005000       1.42031000      13.84791000      -0.23062300       0.13315000       0.02950300
C       -1.23005000       3.55073000      13.84784000       0.00126400      -0.26844800       0.03034100
C        2.45995000       1.42031000      13.84784000       0.23311500       0.13313000       0.03034100
C        1.22995000       3.55073000      13.83781000       0.00119500      -0.00069000       0.03375500
C        0.00000000       0.00000000      10.15096000      -0.23302500      -0.13309500       0.00647000
C        3.69000000       2.13042000      10.16039000      -0.00121200       0.00070000       0.00729000
C        2.46000000       0.00000000      10.15091000       0.23053800      -0.13310100       0.00722200
C        1.23000000       2.13042000      10.15096000      -0.00124900       0.26835400       0.00647000
C       -0.00005000       1.42031000      10.15209000      -0.23062300       0.13315000      -0.02950300
C       -1.23005000       3.55073000      10.15216000       0.00126400      -0.26844800      -0.03034100
C        2.45995000       1.42031000      10.15216000       0.23311500       0.13313000      -0.03034100
C        1.22995000       3.55073000      10.16219000       0.00119500      -0.00069000      -0.03375500
Li       1.22994000       0.71016000      12.00000000      -0.00000400       0.00000200       0.00000000
17
Lattice="4.920000076 0.0 0.0 -2.460000038 4.260845053 0.0 0.0 0.0 24.0" Properties=species:S:1:pos:R:3:forces:R:3 stress="-0.011963524964201002 6.615375522523665e-05 -0.0 6.615375522523665e-05 -0.011887135134009316 -0.0 -0.0 -0.0 0.00333261634871061" free_energy=-150.63590064 energy=-150.63484868 pbc="T T T"
C        0.00000000       0.00000000      13.85472000      -0.23107200      -0.13198800      -0.02072200
C        3.69000000       2.13042000      13.84531000      -0.00119900       0.00069200      -0.00440900
C        2.46000000       0.00000000      13.85476000       0.22862100      -0.13199400      -0.02130200
C        1.23000000       2.13042000      13.85472000      -0.00123100       0.26610800      -0.02072200
C       -0.00005000       1.42031000      13.85385000      -0.22868200       0.13202900       0.00705000
C       -1.23005000       3.55073000      13.85379000       0.00124200      -0.26617500       0.00769000
C        2.45995000       1.42031000      13.85379000       0.23113500       0.13201200       0.00769000
C        1.22995000       3.55073000      13.84391000       0.00118700      -0.00068500       0.02779400
C        0.00000000       0.00000000      10.14528000      -0.23107200      -0.13198800       0.02072200
C        3.69000000       2.13042000      10.15469000      -0.00119900       0.00069200       0.00440900
C        2.46000000       0.00000000      10.14524000       0.22862100      -0.13199400       0.02130200
C        1.23000000       2.13042000      10.14528000      -0.00123100       0.26610800       0.02072200
C       -0.00005000       1.42031000      10.14615000      -0.22868200       0.13202900      -0.00705000
C       -1.23005000       3.55073000      10.14621000       0.00124200      -0.26617500      -0.00769000
C        2.45995000       1.42031000      10.14621000       0.23113500       0.13201200      -0.00769000
C        1.22995000       3.55073000      10.15609000       0.00118700      -0.00068500      -0.02779400
Li       1.22994000       0.71016000      12.00000000      -0.00000300       0.00000200      -0.00000000
17
Lattice="4.920000076 0.0 0.0 -2.460000038 4.260845053 0.0 0.0 0.0 24.0" Properties=species:S:1:pos:R:3:forces:R:3 stress="-0.011899168763604018 6.655321180929318e-05 -0.0 6.655321180929318e-05 -0.011822317061737019 -0.0 -0.0 -0.0 0.003177602228060174" free_energy=-150.63360022 energy=-150.63256055 pbc="T T T"
C        0.00000000       0.00000000      13.84798000      -0.23266800      -0.13295100       0.11053800
C        3.69000000       2.13042000      13.84227000      -0.00127200       0.00073400       0.04642800
C        2.46000000       0.00000000      13.84789000       0.23021800      -0.13291700       0.11175400
C        1.23000000       2.13042000      13.84798000      -0.00119500       0.26797200       0.11053800
C       -0.00005000       1.42031000      13.85332000      -0.22912800       0.13228700      -0.07136200
C       -1.23005000       3.55073000      13.85340000       0.00121900      -0.26670200      -0.07260700
C        2.45995000       1.42031000      13.85340000       0.23158000       0.13229500      -0.07260700
C        1.22995000       3.55073000      13.84803000       0.00124100      -0.00071600      -0.11932700
C        0.00000000       0.00000000      10.15202000      -0.23266800      -0.13295100      -0.11053800
C        3.69000000       2.13042000      10.15773000      -0.00127200       0.00073400      -0.04642800
C        2.46000000       0.00000000      10.15211000       0.23021800      -0.13291700      -0.11175400
C        1.23000000       2.13042000      10.15202000      -0.00119500       0.26797200      -0.11053800
C       -0.00005000       1.42031000      10.14668000      -0.22912800       0.13228700       0.07136200
C       -1.23005000       3.55073000      10.14660000       0.00121900      -0.26670200       0.07260700
C        2.45995000       1.42031000      10.14660000       0.23158000       0.13229500       0.07260700
C        1.22995000       3.55073000      10.15197000       0.00124100      -0.00071600       0.11932700
Li       1.22994000       0.71016000      12.00000000       0.00000700      -0.00000400       0.00000000
17
Lattice="4.920000076 0.0 0.0 -2.460000038 4.260845053 0.0 0.0 0.0 24.0" Properties=species:S:1:pos:R:3:forces:R:3 stress="-0.011961097017151033 6.621617031649549e-05 -0.0 6.621617031649549e-05 -0.011884638530358963 -0.0 -0.0 -0.0 0.0033282535338316176" free_energy=-150.63599774 energy=-150.63494766 pbc="T T T"
C        0.00000000       0.00000000      13.85366000      -0.23123500      -0.13208700      -0.00368300
C        3.69000000       2.13042000      13.84483000      -0.00120700       0.00069700       0.00376400
C        2.46000000       0.00000000      13.85368000       0.22878200      -0.13208700      -0.00397800
C        1.23000000       2.13042000      13.85366000      -0.00122700       0.26629900      -0.00368300
C       -0.00005000       1.42031000      13.85376000      -0.22872800       0.13205600      -0.00521900
C       -1.23005000       3.55073000      13.85373000       0.00123700      -0.26623100      -0.00486000
C        2.45995000       1.42031000      13.85373000       0.23118100       0.13204400      -0.00486000
C        1.22995000       3.55073000      13.84455000       0.00119900      -0.00069200       0.00484200
C        0.00000000       0.00000000      10.14634000      -0.23123500      -0.13208700       0.00368300
C        3.69000000       2.13042000      10.15517000      -0.00120700       0.00069700      -0.00376400
C        2.46000000       0.00000000      10.14632000       0.22878200      -0.13208700       0.00397800
C        1.23000000       2.13042000      10.14634000      -0.00122700       0.26629900       0.00368300
C       -0.00005000       1.42031000      10.14624000      -0.22872800       0.13205600       0.00521900
C       -1.23005000       3.55073000      10.14627000       0.00123700      -0.26623100       0.00486000
C        2.45995000       1.42031000      10.14627000       0.23118100       0.13204400       0.00486000
C        1.22995000       3.55073000      10.15545000       0.00119900      -0.00069200      -0.00484200
Li       1.22994000       0.71016000      12.00000000      -0.00000300       0.00000100      -0.00000000
