17
Lattice="4.920000076 0.0 0.0 -2.46 4.260845053 0.0 0.0 0.0 24.0" Properties=species:S:1:pos:R:3:forces:R:3 stress="-0.011398612214726433 -0.0 0.0 -0.0 -0.011359303190251621 9.986414601413215e-08 0.0 9.986414601413215e-08 -0.014099088519167588" free_energy=-149.65867677 energy=-149.65778304 pbc="T T T"
C        0.00000000       0.00000000      13.67500000      -0.00000000      -0.36470800       0.13549000
C        3.69000000       2.13000000      13.67500000      -0.29058500       0.17112800       0.13503800
C        2.46000000       0.00000000      13.67500000      -0.00000000      -0.02910900       0.05088800
C        1.23000000       2.13000000      13.67500000       0.29058500       0.17112800       0.13503800
C       -0.00000000       1.42000000      13.67500000      -0.00000000      -0.00394600       3.78845600
C       -1.23000000       3.55000000      13.67500000       0.11254600       0.09382900       0.01442400
C        2.46000000       1.42000000      13.67500000      -0.00000000      -0.13367500       0.01449200
C        1.23000000       3.55000000      13.67500000      -0.11254600       0.09382900       0.01442400
C        0.00000000       0.00000000      10.32500000      -0.00000000      -0.38280400      -0.18571100
C        3.69000000       2.13000000      10.32500000      -0.31336300       0.19255000      -0.18604200
C        2.46000000       0.00000000      10.32500000      -0.00000000      -0.02117300       0.10026600
C        1.23000000       2.13000000      10.32500000       0.31336300       0.19255000      -0.18604200
C        1.23000000       0.71000000      10.32500000       0.31714800      -0.19447800      -0.18700900
C        0.00000000       2.84000000      10.32500000       0.00000000       0.38735800      -0.18680800
C        3.69000000       0.71000000      10.32500000      -0.31714800      -0.19447800      -0.18700900
C        2.46000000       2.84000000      10.32500000       0.00000000       0.02134500       0.09449100
Li      -0.00000000       1.42000000      12.00000000       0.00000000       0.00065800      -3.36438600
17
Lattice="4.920000076 0.0 0.0 -2.46 4.260845053 0.0 0.0 0.0 24.0" Properties=species:S:1:pos:R:3:forces:R:3 stress="-0.011969479363907092 -0.0 -0.0 -0.0 -0.011942397455809887 -1.2770127671557147e-05 -0.0 -1.2770127671557147e-05 -0.005045891879238188" free_energy=-149.9986366 energy=-149.99790976 pbc="T T T"
C        0.00000000       0.00000000      13.68154000      -0.00000000      -0.13757200       0.81730400
C        3.69000000       2.13000000      13.68151000      -0.09179100       0.05358200       0.81865100
C        2.46000000       0.00000000      13.67745000      -0.00000000      -0.03180700       0.23980700
C        1.23000000       2.13000000      13.68151000       0.09179100       0.05358200       0.81865100
C       -0.00000000       1.42000000      13.85777000      -0.00000000      -0.00420400      -1.55294600
C       -1.23000000       3.55000000      13.67570000       0.09534500       0.08358700      -0.03283700
C        2.46000000       1.42000000      13.67570000      -0.00000000      -0.11411400      -0.03270200
C        1.23000000       3.55000000      13.67570000      -0.09534500       0.08358700      -0.03283700
C        0.00000000       0.00000000      10.31604000      -0.00000000      -0.52674600      -0.28946700
C        3.69000000       2.13000000      10.31602000      -0.43667600       0.27068200      -0.29371300
C        2.46000000       0.00000000      10.32984000      -0.00000000      -0.02262200      -0.04806800
C        1.23000000       2.13000000      10.31602000       0.43667600       0.27068200      -0.29371300
C        1.23000000       0.71000000      10.31598000       0.43836400      -0.26594000      -0.27864700
C        0.00000000       2.84000000      10.31599000       0.00000000       0.53442200      -0.28199800
C        3.69000000       0.71000000      10.31598000      -0.43836400      -0.26594000      -0.27864700
C        2.46000000       2.84000000      10.32956000       0.00000000       0.01988500      -0.03991600
Li       0.00000000       1.42003000      11.83769000      -0.00000000      -0.00106200       0.76108000
17
Lattice="4.920000076 0.0 0.0 -2.46 4.260845053 0.0 0.0 0.0 24.0" Properties=species:S:1:pos:R:3:forces:R:3 stress="-0.011902751389842274 -0.0 0.0 -0.0 -0.011866656742567292 1.928626319897927e-06 0.0 1.928626319897927e-06 -0.006810416441198392" free_energy=-150.04943958 energy=-150.04864228 pbc="T T T"
C        0.00000000       0.00000000      13.67952000      -0.00000000      -0.24568300       0.59380200
C        3.69000000       2.13000000      13.67951000      -0.18689900       0.11043900       0.59466100
C        2.46000000       0.00000000      13.67670000      -0.00000000      -0.02989600       0.18286600
C        1.23000000       2.13000000      13.67951000       0.18689900       0.11043900       0.59466100
C       -0.00000000       1.42000000      13.80147000      -0.00000000      -0.00300300      -0.25179800
C       -1.23000000       3.55000000      13.67548000       0.10543800       0.09046800      -0.01801000
C        2.46000000       1.42000000      13.67548000      -0.00000000      -0.12474200      -0.01788300
C        1.23000000       3.55000000      13.67548000      -0.10543800       0.09046800      -0.01801000
C        0.00000000       0.00000000      10.31880000      -0.00000000      -0.47448000      -0.25738400
C        3.69000000       2.13000000      10.31879000      -0.39274900       0.23840900      -0.25753000
C        2.46000000       0.00000000      10.32835000      -0.00000000      -0.02113800      -0.00714600
C        1.23000000       2.13000000      10.31879000       0.39274900       0.23840900      -0.25753000
C        1.23000000       0.71000000      10.31876000       0.39494700      -0.23941900      -0.24916800
C        0.00000000       2.84000000      10.31876000       0.00000000       0.47729600      -0.24916700
C        3.69000000       0.71000000      10.31876000      -0.39494700      -0.23941900      -0.24916800
C        2.46000000       2.84000000      10.32815000       0.00000000       0.02133300      -0.00268700
Li       0.00000000       1.42002000      11.88769000       0.00000000       0.00051800      -0.13051100
17
Lattice="4.920000076 0.0 0.0 -2.46 4.260845053 0.0 0.0 0.0 24.0" Properties=species:S:1:pos:R:3:forces:R:3 stress="-0.012203947895730023 -0.0 0.0 -0.0 -0.012164270622216783 1.3244482365124274e-05 0.0 1.3244482365124274e-05 -0.006040520049011565" free_energy=-150.09913413 energy=-150.09836284 pbc="T T T"
C        0.00000000       0.00000000      13.70677000      -0.00000000      -0.28071700       0.17819600
C        3.69000000       2.13000000      13.70679000      -0.21697900       0.12755100       0.17913000
C        2.46000000       0.00000000      13.68511000      -0.00000000      -0.03018400      -0.00629100
C        1.23000000       2.13000000      13.70679000       0.21697900       0.12755100       0.17913000
C       -0.00000000       1.42000000      13.80027000      -0.00000000      -0.00326500       0.05683600
C       -1.23000000       3.55000000      13.67471000       0.09818700       0.08833400       0.32440300
C        2.46000000       1.42000000      13.67471000      -0.00000000      -0.11662200       0.32028200
C        1.23000000       3.55000000      13.67471000      -0.09818700       0.08833400       0.32440300
C        0.00000000       0.00000000      10.30665000      -0.00000000      -0.47962000      -0.21009200
C        3.69000000       2.13000000      10.30663000      -0.39698400       0.24056100      -0.21031900
C        2.46000000       0.00000000      10.32829000      -0.00000000      -0.02142100      -0.15224400
C        1.23000000       2.13000000      10.30663000       0.39698400       0.24056100      -0.21031900
C        1.23000000       0.71000000      10.30697000       0.39925500      -0.24218300      -0.20722100
C        0.00000000       2.84000000      10.30698000       0.00000000       0.48205700      -0.20715600
C        3.69000000       0.71000000      10.30697000      -0.39925500      -0.24218300      -0.20722100
C        2.46000000       2.84000000      10.32829000       0.00000000       0.02105400      -0.14793300
Li       0.00000000       1.42005000      11.87273000       0.00000000       0.00019200      -0.00358700
17
Lattice="4.920000076 0.0 0.0 -2.46 4.260845053 0.0 0.0 0.0 24.0" Properties=species:S:1:pos:R:3:forces:R:3 stress="-0.012117740171683326 -0.0 0.0 -0.0 -0.01208130224140642 5.523735576406684e-06 0.0 5.523735576406684e-06 -0.005574404147490604" free_energy=-150.1090654 energy=-150.10831187 pbc="T T T"
C        0.00000000       0.00000000      13.72550000      -0.00000000      -0.30529100      -0.10665200
C        3.69000000       2.13000000      13.72555000      -0.23802500       0.14187700      -0.10998100
C        2.46000000       0.00000000      13.69090000      -0.00000000      -0.03047300      -0.12622000
C        1.23000000       2.13000000      13.72555000       0.23802500       0.14187700      -0.10998100
C       -0.00000000       1.42000000      13.79944000      -0.00000000      -0.00353600       0.27976800
C       -1.23000000       3.55000000      13.67417000       0.08844900       0.08234100       0.56947400
C        2.46000000       1.42000000      13.67418000      -0.00000000      -0.10559700       0.57368500
C        1.23000000       3.55000000      13.67417000      -0.08844900       0.08234100       0.56947400
C        0.00000000       0.00000000      10.29829000      -0.00000000      -0.48418800      -0.18769200
C        3.69000000       2.13000000      10.29827000      -0.40071500       0.24242200      -0.18797600
C        2.46000000       0.00000000      10.32826000      -0.00000000      -0.02170100      -0.24492200
C        1.23000000       2.13000000      10.29827000       0.40071500       0.24242200      -0.18797600
C        1.23000000       0.71000000      10.29887000       0.40296900      -0.24460800      -0.18872400
C        0.00000000       2.84000000      10.29888000       0.00000000       0.48610200      -0.18860600
C        3.69000000       0.71000000      10.29887000      -0.40296900      -0.24460800      -0.18872400
C        2.46000000       2.84000000      10.32838000       0.00000000       0.02075000      -0.24114900
Li       0.00000000       1.42006000      11.86244000      -0.00000000      -0.00013100       0.07620200
17
Lattice="4.920000076 0.0 0.0 -2.46 4.260845053 0.0 0.0 0.0 24.0" Properties=species:S:1:pos:R:3:forces:R:3 stress="-0.012283408548411643 -0.0 0.0 -0.0 -0.012254029764956112 2.071556878880653e-05 0.0 2.071556878880653e-05 -0.005122369090557635" free_energy=-150.15611959 energy=-150.15534467 pbc="T T T"
C        0.00000000       0.00000000      13.73886000      -0.00000000      -0.30346100      -0.09822400
C        3.69000000       2.13000000      13.73883000      -0.23619400       0.14233000      -0.09914200
C        2.46000000       0.00000000      13.69235000      -0.00000000      -0.03056500       0.05190500
C        1.23000000       2.13000000      13.73883000       0.23619400       0.14233000      -0.09914200
C       -0.00000000       1.42000000      13.80673000       0.00000000       0.00074000       0.25334600
C       -1.23000000       3.55000000      13.69002000       0.08361800       0.07703800       0.48500200
C        2.46000000       1.42000000      13.69016000      -0.00000000      -0.10037800       0.48358700
C        1.23000000       3.55000000      13.69002000      -0.08361800       0.07703800       0.48500200
C        0.00000000       0.00000000      10.28560000      -0.00000000      -0.48075500      -0.15872500
C        3.69000000       2.13000000      10.28556000      -0.39764500       0.24049300      -0.15892600
C        2.46000000       0.00000000      10.32120000      -0.00000000      -0.02181800      -0.30721200
C        1.23000000       2.13000000      10.28556000       0.39764500       0.24049300      -0.15892600
C        1.23000000       0.71000000      10.28637000       0.39957700      -0.24284800      -0.16882200
C        0.00000000       2.84000000      10.28638000       0.00000000       0.48198600      -0.16873400
C        3.69000000       0.71000000      10.28637000      -0.39957700      -0.24284800      -0.16882200
C        2.46000000       2.84000000      10.32155000       0.00000000       0.02055600      -0.30953900
Li       0.00000000       1.42008000      11.85561000      -0.00000000      -0.00033200       0.13737000
17
Lattice="4.920000076 0.0 0.0 -2.46 4.260845053 0.0 0.0 0.0 24.0" Properties=species:S:1:pos:R:3:forces:R:3 stress="-0.012492723798457266 -0.0 0.0 -0.0 -0.01245361450227448 1.472996153708449e-06 0.0 1.472996153708449e-06 -0.0034294720873260668" free_energy=-150.23866449 energy=-150.23782231 pbc="T T T"
C        0.00000000       0.00000000      13.77891000      -0.00000000      -0.30091800      -0.16853800
C        3.69000000       2.13000000      13.77867000      -0.23445800       0.13841300      -0.16285600
C        2.46000000       0.00000000      13.69670000      -0.00000000      -0.02910000       0.62736400
C        1.23000000       2.13000000      13.77867000       0.23445800       0.13841300      -0.16285600
C       -0.00000000       1.42000000      13.82860000      -0.00000000      -0.00298300       0.24584500
C       -1.23000000       3.55000000      13.73758000       0.08354100       0.07762100       0.24137600
C        2.46000000       1.42000000      13.73809000      -0.00000000      -0.10053900       0.23568600
C        1.23000000       3.55000000      13.73758000      -0.08354100       0.07762100       0.24137600
C        0.00000000       0.00000000      10.24750000      -0.00000000      -0.47227300      -0.03770200
C        3.69000000       2.13000000      10.24743000      -0.39107800       0.23741400      -0.03766800
C        2.46000000       0.00000000      10.30005000      -0.00000000      -0.02095100      -0.51155000
C        1.23000000       2.13000000      10.24743000       0.39107800       0.23741400      -0.03766800
C        1.23000000       0.71000000      10.24885000       0.39163200      -0.23757700      -0.07564100
C        0.00000000       2.84000000      10.24887000       0.00000000       0.47342900      -0.07564900
C        3.69000000       0.71000000      10.24885000      -0.39163200      -0.23757700      -0.07564100
C        2.46000000       2.84000000      10.30105000       0.00000000       0.02126900      -0.53381000
Li       0.00000000       1.42011000      11.83513000       0.00000000       0.00032400       0.28793100
17
Lattice="4.920000076 0.0 0.0 -2.46 4.260845053 0.0 0.0 0.0 24.0" Properties=species:S:1:pos:R:3:forces:R:3 stress="-0.012435476676754664 -0.0 -0.0 -0.0 -0.012364666755721516 -7.50853547843756e-06 -0.0 -7.50853547843756e-06 7.550353589580977e-05" free_energy=-150.2238191 energy=-150.2228628 pbc="T T T"
C        0.00000000       0.00000000      13.85903000      -0.00000000      -0.30191800      -0.13321200
C        3.69000000       2.13000000      13.85835000      -0.23473200       0.13782600      -0.12054800
C        2.46000000       0.00000000      13.70541000      -0.00000000      -0.02688900       1.80824100
C        1.23000000       2.13000000      13.85835000       0.23473200       0.13782600      -0.12054800
C       -0.00000000       1.42000000      13.87235000      -0.00000000      -0.00476400       0.20123900
C       -1.23000000       3.55000000      13.83270000       0.14985900       0.11557700      -0.36556200
C        2.46000000       1.42000000      13.83396000      -0.00000000      -0.18165100      -0.38887700
C        1.23000000       3.55000000      13.83270000      -0.14985900       0.11557700      -0.36556200
C        0.00000000       0.00000000      10.17132000      -0.00000000      -0.47087600       0.17409500
C        3.69000000       2.13000000      10.17117000      -0.38918500       0.24081000       0.17741800
C        2.46000000       0.00000000      10.25774000      -0.00000000      -0.02198000      -0.87668200
C        1.23000000       2.13000000      10.17117000       0.38918500       0.24081000       0.17741800
C        1.23000000       0.71000000      10.17382000       0.38500700      -0.23493600       0.09341600
C        0.00000000       2.84000000      10.17387000       0.00000000       0.46447400       0.09325000
C        3.69000000       0.71000000      10.17382000      -0.38500700      -0.23493600       0.09341600
C        2.46000000       2.84000000      10.26007000       0.00000000       0.02602200      -0.94992000
Li       0.00000000       1.42018000      11.79418000      -0.00000000      -0.00097200       0.50241600
17
Lattice="4.920000076 0.0 0.0 -2.46 4.260845053 0.0 0.0 0.0 24.0" Properties=species:S:1:pos:R:3:forces:R:3 stress="-0.013069607762435277 -0.0 0.0 -0.0 -0.013033494390632915 6.428754399659756e-07 0.0 6.428754399659756e-07 -0.002004485621813912" free_energy=-150.25714085 energy=-150.25623684 pbc="T T T"
C        0.00000000       0.00000000      13.81618000      -0.00000000      -0.30042200      -0.13108900
C        3.69000000       2.13000000      13.81573000      -0.23395500       0.13824700      -0.12214900
C        2.46000000       0.00000000      13.70075000      -0.00000000      -0.02800100       1.16497700
C        1.23000000       2.13000000      13.81573000       0.23395500       0.13824700      -0.12214900
C       -0.00000000       1.42000000      13.84895000      -0.00000000      -0.00341800       0.18449000
C       -1.23000000       3.55000000      13.78182000       0.10436000       0.08951900      -0.07897400
C        2.46000000       1.42000000      13.78268000      -0.00000000      -0.12600800      -0.08896300
C        1.23000000       3.55000000      13.78182000      -0.10436000       0.08951900      -0.07897400
C        0.00000000       0.00000000      10.21207000      -0.00000000      -0.46918600       0.07838900
C        3.69000000       2.13000000      10.21196000      -0.38834300       0.23565400       0.07859800
C        2.46000000       0.00000000      10.28037000      -0.00000000      -0.02107500      -0.69868300
C        1.23000000       2.13000000      10.21196000       0.38834300       0.23565400       0.07859800
C        1.23000000       0.71000000      10.21395000       0.38704800      -0.23511900       0.01853000
C        0.00000000       2.84000000      10.21399000       0.00000000       0.46801200       0.01844100
C        3.69000000       0.71000000      10.21395000      -0.38704800      -0.23511900       0.01853000
C        2.46000000       2.84000000      10.28199000       0.00000000       0.02343500      -0.74172400
Li       0.00000000       1.42014000      11.81608000       0.00000000       0.00006100       0.42215300
17
Lattice="4.920000076 0.0 0.0 -2.46 4.260845053 0.0 0.0 0.0 24.0" Properties=species:S:1:pos:R:3:forces:R:3 stress="-0.012812076854392207 -0.0 -0.0 -0.0 -0.012768985475387108 -6.241509125883258e-07 -0.0 -6.241509125883258e-07 -0.0012869804572297502" free_energy=-150.2964843 energy=-150.29555153 pbc="T T T"
C        0.00000000       0.00000000      13.82706000      -0.00000000      -0.29740700      -0.09388100
C        3.69000000       2.13000000      13.82668000      -0.23172800       0.13714300      -0.08599600
C        2.46000000       0.00000000      13.72038000      -0.00000000      -0.02781300       1.10213800
C        1.23000000       2.13000000      13.82668000       0.23172800       0.13714300      -0.08599600
C       -0.00000000       1.42000000      13.85890000      -0.00000000      -0.00341000       0.13864700
C       -1.23000000       3.55000000      13.79595000       0.10054200       0.08712600      -0.08292300
C        2.46000000       1.42000000      13.79677000      -0.00000000      -0.12138200      -0.09209100
C        1.23000000       3.55000000      13.79595000      -0.10054200       0.08712600      -0.08292300
C        0.00000000       0.00000000      10.20100000      -0.00000000      -0.45394200       0.05410700
C        3.69000000       2.13000000      10.20088000      -0.37527700       0.22829400       0.05448200
C        2.46000000       0.00000000      10.26261000      -0.00000000      -0.02091500      -0.64930000
C        1.23000000       2.13000000      10.20088000       0.37527700       0.22829400       0.05448200
C        1.23000000       0.71000000      10.20213000       0.37493400      -0.22791600       0.01422000
C        0.00000000       2.84000000      10.20217000       0.00000000       0.45420400       0.01403200
C        3.69000000       0.71000000      10.20213000      -0.37493400      -0.22791600       0.01422000
C        2.46000000       2.84000000      10.26377000       0.00000000       0.02107800      -0.67627700
Li       0.00000000       1.42015000      11.81608000       0.00000000       0.00029500       0.40305700
17
Lattice="4.920000076 0.0 0.0 -2.46 4.260845053 0.0 0.0 0.0 24.0" Properties=species:S:1:pos:R:3:forces:R:3 stress="-0.013079681558164451 -0.0 -0.0 -0.0 -0.013010113697447357 -5.4550789760219674e-06 -0.0 -5.4550789760219674e-06 -0.00016708519929989481" free_energy=-150.39143634 energy=-150.39042541 pbc="T T T"
C        0.00000000       0.00000000      13.85971000      -0.00000000      -0.29166700      -0.09106000
C        3.69000000       2.13000000      13.85954000      -0.22677000       0.13391600      -0.08589000
C        2.46000000       0.00000000      13.77927000      -0.00000000      -0.02846400       0.83636100
C        1.23000000       2.13000000      13.85954000       0.22677000       0.13391600      -0.08589000
C       -0.00000000       1.42000000      13.88875000      -0.00000000      -0.00447800       0.09130000
C       -1.23000000       3.55000000      13.83831000       0.09049100       0.08563000      -0.11120200
C        2.46000000       1.42000000      13.83902000      -0.00000000      -0.11021200      -0.11721000
C        1.23000000       3.55000000      13.83831000      -0.09049100       0.08563000      -0.11120200
C        0.00000000       0.00000000      10.16778000      -0.00000000      -0.41559700      -0.00204500
C        3.69000000       2.13000000      10.16763000      -0.34142300       0.20801900      -0.00117900
C        2.46000000       0.00000000      10.20933000      -0.00000000      -0.02163400      -0.39604800
C        1.23000000       2.13000000      10.16763000       0.34142300       0.20801900      -0.00117900
C        1.23000000       0.71000000      10.16666000       0.34261500      -0.20988200       0.03257500
C        0.00000000       2.84000000      10.16670000       0.00000000       0.41628600       0.03207200
C        3.69000000       0.71000000      10.16666000      -0.34261500      -0.20988200       0.03257500
C        2.46000000       2.84000000      10.20911000       0.00000000       0.02065300      -0.37655600
Li       0.00000000       1.42019000      11.81605000      -0.00000000      -0.00025300       0.35458000
17
Lattice="4.920000076 0.0 0.0 -2.46 4.260845053 0.0 0.0 0.0 24.0" Properties=species:S:1:pos:R:3:forces:R:3 stress="-0.012489478213711805 -0.0 0.0 -0.0 -0.012437767310603863 4.1193960230829507e-07 0.0 4.1193960230829507e-07 0.0029540251296619096" free_energy=-150.47501198 energy=-150.47378413 pbc="T T T"
C        0.00000000       0.00000000      13.92501000      -0.00000000      -0.28222100       0.06850000
C        3.69000000       2.13000000      13.92526000      -0.21998900       0.13126600       0.06816200
C        2.46000000       0.00000000      13.89705000      -0.00000000      -0.02772700       0.40116200
C        1.23000000       2.13000000      13.92526000       0.21998900       0.13126600       0.06816200
C       -0.00000000       1.42000000      13.94845000      -0.00000000      -0.00474100       0.00351800
C       -1.23000000       3.55000000      13.92304000       0.07617600       0.07172900      -0.12379100
C        2.46000000       1.42000000      13.92353000      -0.00000000      -0.09301200      -0.12776100
C        1.23000000       3.55000000      13.92304000      -0.07617600       0.07172900      -0.12379100
C        0.00000000       0.00000000      10.10133000      -0.00000000      -0.36038600      -0.17387500
C        3.69000000       2.13000000      10.10114000      -0.29426200       0.18164800      -0.17212400
C        2.46000000       0.00000000      10.10276000      -0.00000000      -0.02084700       0.01051200
C        1.23000000       2.13000000      10.10114000       0.29426200       0.18164800      -0.17212400
C        1.23000000       0.71000000      10.09572000       0.29331300      -0.18098300      -0.03422000
C        0.00000000       2.84000000      10.09577000       0.00000000       0.35987400      -0.03528700
C        3.69000000       0.71000000      10.09572000      -0.29331300      -0.18098300      -0.03422000
C        2.46000000       2.84000000      10.09978000       0.00000000       0.02129600       0.13694300
Li       0.00000000       1.42026000      11.81600000       0.00000000       0.00044500       0.24023500
17
Lattice="4.920000076 0.0 0.0 -2.46 4.260845053 0.0 0.0 0.0 24.0" Properties=species:S:1:pos:R:3:forces:R:3 stress="-0.012365840159437183 -0.0 0.0 -0.0 -0.012313698592199555 1.3107169164354842e-06 0.0 1.3107169164354842e-06 0.006899451568879117" free_energy=-150.36781439 energy=-150.36585695 pbc="T T T"
C        0.00000000       0.00000000      14.05561000      -0.00000000      -0.28380700       0.27705400
C        3.69000000       2.13000000      14.05670000      -0.22203700       0.13357000       0.26605800
C        2.46000000       0.00000000      14.13261000      -0.00000000      -0.02681100      -0.40964600
C        1.23000000       2.13000000      14.05670000       0.22203700       0.13357000       0.26605800
C       -0.00000000       1.42000000      14.06784000      -0.00000000      -0.00572100      -0.12393700
C       -1.23000000       3.55000000      14.09249000       0.07566800       0.07073900      -0.21071800
C        2.46000000       1.42000000      14.09256000      -0.00000000      -0.09366900      -0.20770800
C        1.23000000       3.55000000      14.09249000      -0.07566800       0.07073900      -0.21071800
C        0.00000000       0.00000000       9.96845000      -0.00000000      -0.34161700      -0.47341900
C        3.69000000       2.13000000       9.96815000      -0.27865600       0.17294800      -0.46992000
C        2.46000000       0.00000000       9.88963000      -0.00000000      -0.02001100       0.80939100
C        1.23000000       2.13000000       9.96815000       0.27865600       0.17294800      -0.46992000
C        1.23000000       0.71000000       9.95384000       0.25140800      -0.15729000      -0.08518200
C        0.00000000       2.84000000       9.95392000       0.00000000       0.31057300      -0.08725100
C        3.69000000       0.71000000       9.95384000      -0.25140800      -0.15729000      -0.08518200
C        2.46000000       2.84000000       9.88113000       0.00000000       0.02068600       1.16828500
Li       0.00000000       1.42041000      11.81590000       0.00000000       0.00044300       0.04675200
17
Lattice="4.920000076 0.0 0.0 -2.46 4.260845053 0.0 0.0 0.0 24.0" Properties=species:S:1:pos:R:3:forces:R:3 stress="-0.012782591965281535 -0.0 0.0 -0.0 -0.012715508225196542 1.761978026236844e-05 0.0 1.761978026236844e-05 0.0037723244251199597" free_energy=-150.49604031 energy=-150.49463079 pbc="T T T"
C        0.00000000       0.00000000      13.95871000      -0.00000000      -0.28276800       0.12955400
C        3.69000000       2.13000000      13.95918000      -0.21872500       0.14548200       0.13144500
C        2.46000000       0.00000000      13.95784000      -0.00000000      -0.02995000       0.21957900
C        1.23000000       2.13000000      13.95918000       0.21872500       0.14548200       0.13144500
C       -0.00000000       1.42000000      13.97926000      -0.00000000      -0.00735500      -0.05496400
C       -1.23000000       3.55000000      13.96676000       0.07268200       0.06696800      -0.12477400
C        2.46000000       1.42000000      13.96715000      -0.00000000      -0.09006900      -0.13545700
C        1.23000000       3.55000000      13.96676000      -0.07268200       0.06696800      -0.12477400
C        0.00000000       0.00000000      10.06704000      -0.00000000      -0.34708100      -0.27609400
C        3.69000000       2.13000000      10.06682000      -0.28083800       0.17154300      -0.27390900
C        2.46000000       0.00000000      10.04776000      -0.00000000      -0.02302500       0.21361000
C        1.23000000       2.13000000      10.06682000       0.28083800       0.17154300      -0.27390900
C        1.23000000       0.71000000      10.05910000       0.27586000      -0.17346900      -0.05394000
C        0.00000000       2.84000000      10.05917000       0.00000000       0.33699700      -0.05528700
C        3.69000000       0.71000000      10.05910000      -0.27586000      -0.17346900      -0.05394000
C        2.46000000       2.84000000      10.04336000       0.00000000       0.02411800       0.40087500
Li       0.00000000       1.42030000      11.81598000      -0.00000000      -0.00191600       0.20054100
17
Lattice="4.920000076 0.0 0.0 -2.46 4.260845053 0.0 0.0 0.0 24.0" Properties=species:S:1:pos:R:3:forces:R:3 stress="-0.013458859479070984 -0.0 0.0 -0.0 -0.013387874795782314 5.642324249798465e-06 0.0 5.642324249798465e-06 0.0037010588739206252" free_energy=-150.48900537 energy=-150.48752182 pbc="T T T"
C        0.00000000       0.00000000      13.97078000      -0.00000000      -0.28155800       0.11373900
C        3.69000000       2.13000000      13.97132000      -0.21905900       0.13610800       0.11231100
C        2.46000000       0.00000000      13.97961000      -0.00000000      -0.02839000       0.10756600