29
Lattice="6.508500099 0.0 0.0 -3.25425005 5.636526426 0.0 0.0 0.0 24.0" Properties=species:S:1:pos:R:3:forces:R:3 stress="-0.007696367454071891 1.4037154024111448e-05 -0.0 1.4037154024111448e-05 -0.007693003280653039 -0.0 -0.0 -0.0 0.00400746079841936" free_energy=-262.15494334 energy=-262.1541134 pbc="T T T"
C        0.00000000       0.00000000      13.87500000      -0.07250800      -0.15611600      -0.05008700
C       -0.46487000       2.41565000      13.87500000      -0.20131500      -0.03589900       0.05273500
C       -0.92980000       4.83129000      13.87500000      -0.10637100       0.13476000      -0.01714600
C        1.85958000       1.61041000      13.87500000       0.13106800      -0.16443900       0.05575300
C        1.39467000       4.02611000      13.87500000       0.06963900       0.19647300       0.05263600
C        4.18405000       0.80523000      13.87500000      -0.00047400       0.00207100       0.02800700
C        3.71912000       3.22088000      13.87500000       0.16454300       0.01678700      -0.01406700
C       -2.32448000       4.56294000      13.87500000       0.01023200       0.00896000       0.02324200
C        0.46490000       1.34206000      13.87500000      -0.08593600      -0.19227600       0.05073000
C       -0.00003000       3.75770000      13.87500000      -0.12777900       0.16054100       0.04930200
C        2.78935000       0.53682000      13.87500000       0.10367800      -0.13594800      -0.03444800
C        2.32448000       2.95247000      13.87500000       0.20457600       0.03387100       0.03507600
C        1.85954000       5.36812000      13.87500000       0.08011400       0.14517400      -0.01884200
C        4.64892000       2.14723000      13.87500000      -0.16916700      -0.01406300      -0.03445000
C        0.00000000       0.00000000      10.12500000      -0.07250800      -0.15611600       0.05008700
C       -0.46487000       2.41565000      10.12500000      -0.20131500      -0.03589900      -0.05273500
C       -0.92980000       4.83129000      10.12500000      -0.10637100       0.13476000       0.01714600
C        1.85958000       1.61041000      10.12500000       0.13106800      -0.16443900      -0.05575300
C        1.39467000       4.02611000      10.12500000       0.06963900       0.19647300      -0.05263600
C        4.18405000       0.80523000      10.12500000      -0.00047400       0.00207100      -0.02800700
C        3.71912000       3.22088000      10.12500000       0.16454300       0.01678700       0.01406700
C       -2.32448000       4.56294000      10.12500000       0.01023200       0.00896000      -0.02324200
C        0.46490000       1.34206000      10.12500000      -0.08593600      -0.19227600      -0.05073000
C       -0.00003000       3.75770000      10.12500000      -0.12777900       0.16054100      -0.04930200
C        2.78935000       0.53682000      10.12500000       0.10367800      -0.13594800       0.03444800
C        2.32448000       2.95247000      10.12500000       0.20457600       0.03387100      -0.03507600
C        1.85954000       5.36812000      10.12500000       0.08011400       0.14517400       0.01884200
C        4.64892000       2.14723000      10.12500000      -0.16916700      -0.01406300       0.03445000
Li       0.92980000       2.68406000      12.00000000      -0.00060300       0.00020700      -0.00000000
29
Lattice="6.508500099 0.0 0.0 -3.25425005 5.636526426 0.0 0.0 0.0 24.0" Properties=species:S:1:pos:R:3:forces:R:3 stress="-0.007681618768007428 2.4391817663951772e-05 -0.0 2.4391817663951772e-05 -0.00765191542607735 -0.0 -0.0 -0.0 0.004100034861774461" free_energy=-262.15645712 energy=-262.15564579 pbc="T T T"
C        0.00000000       0.00000000      13.87258000      -0.07182600      -0.15576200      -0.01175500
C       -0.46487000       2.41565000      13.87754000      -0.19559000      -0.03211500       0.03061300
C       -0.92980000       4.83129000      13.87417000      -0.10592300       0.13375400       0.00083100
C        1.85958000       1.61041000      13.87769000       0.13662000      -0.16746700       0.02669900
C        1.39467000       4.02611000      13.87754000       0.06474500       0.19886400       0.03068700
C        4.18405000       0.80523000      13.87635000       0.00015900       0.00365000      -0.02187000
C        3.71912000       3.22088000      13.87432000       0.16417400       0.01658700      -0.00293200
C       -2.32448000       4.56294000      13.87612000       0.00017300       0.01037300      -0.02316800
C        0.46490000       1.34206000      13.87745000      -0.07905800      -0.19711600       0.02898600
C       -0.00003000       3.75770000      13.87738000      -0.12689500       0.16050700       0.04684300
C        2.78935000       0.53682000      13.87334000       0.10429000      -0.13532900      -0.00110100
C        2.32448000       2.95247000      13.87669000       0.20002400       0.03231600       0.03535400
C        1.85954000       5.36812000      13.87409000       0.07805800       0.14502500      -0.00368000
C        4.64892000       2.14723000      13.87334000      -0.16870000      -0.01356600      -0.00106300
C        0.00000000       0.00000000      10.12742000      -0.07182600      -0.15576200       0.01175500
C       -0.46487000       2.41565000      10.12246000      -0.19559000      -0.03211500      -0.03061300
C       -0.92980000       4.83129000      10.12583000      -0.10592300       0.13375400      -0.00083100
C        1.85958000       1.61041000      10.12231000       0.13662000      -0.16746700      -0.02669900
C        1.39467000       4.02611000      10.12246000       0.06474500       0.19886400      -0.03068700
C        4.18405000       0.80523000      10.12365000       0.00015900       0.00365000       0.02187000
C        3.71912000       3.22088000      10.12568000       0.16417400       0.01658700       0.00293200
C       -2.32448000       4.56294000      10.12388000       0.00017300       0.01037300       0.02316800
C        0.46490000       1.34206000      10.12255000      -0.07905800      -0.19711600      -0.02898600
C       -0.00003000       3.75770000      10.12262000      -0.12689500       0.16050700      -0.04684300
C        2.78935000       0.53682000      10.12666000       0.10429000      -0.13532900       0.00110100
C        2.32448000       2.95247000      10.12331000       0.20002400       0.03231600      -0.03535400
C        1.85954000       5.36812000      10.12591000       0.07805800       0.14502500       0.00368000
C        4.64892000       2.14723000      10.12666000      -0.16870000      -0.01356600       0.00106300
Li       0.92978000       2.68407000      12.00000000      -0.00050200       0.00055800      -0.00000000
29
Lattice="6.508500099 0.0 0.0 -3.25425005 5.636526426 0.0 0.0 0.0 24.0" Properties=species:S:1:pos:R:3:forces:R:3 stress="-0.007705136774393756 2.1864006467969053e-05 -0.0 2.1864006467969053e-05 -0.007689508035542546 -0.0 -0.0 -0.0 0.004137883373113817" free_energy=-262.15675629 energy=-262.15595834 pbc="T T T"
C        0.00000000       0.00000000      13.87079000      -0.07159800      -0.15631200       0.02877500
C       -0.46487000       2.41565000      13.87943000      -0.19489000      -0.02831600       0.01475500
C       -0.92980000       4.83129000      13.87356000      -0.10275600       0.12903200       0.01676600
C        1.85958000       1.61041000      13.87968000       0.13906800      -0.16488900       0.00606200
C        1.39467000       4.02611000      13.87942000       0.06056300       0.19641500       0.01513300
C        4.18405000       0.80523000      13.87735000       0.00050900       0.00869200      -0.06089600
C        3.71912000       3.22088000      13.87382000       0.16424800       0.01617200       0.00381400
C       -2.32448000       4.56294000      13.87695000       0.00182900       0.01012200      -0.05474300
C        0.46490000       1.34206000      13.87926000      -0.08282600      -0.19640400       0.01119000
C       -0.00003000       3.75770000      13.87914000      -0.12659200       0.15966000       0.02518500
C        2.78935000       0.53682000      13.87211000       0.10502200      -0.13790200       0.02747900
C        2.32448000       2.95247000      13.87795000       0.19713900       0.03183600       0.03844500
C        1.85954000       5.36812000      13.87342000       0.07771400       0.14436500       0.00667000
C        4.64892000       2.14723000      13.87211000      -0.16702500      -0.01241200       0.02753600
C        0.00000000       0.00000000      10.12921000      -0.07159800      -0.15631200      -0.02877500
C       -0.46487000       2.41565000      10.12057000      -0.19489000      -0.02831600      -0.01475500
C       -0.92980000       4.83129000      10.12644000      -0.10275600       0.12903200      -0.01676600
C        1.85958000       1.61041000      10.12032000       0.13906800      -0.16488900      -0.00606200
C        1.39467000       4.02611000      10.12058000       0.06056300       0.19641500      -0.01513300
C        4.18405000       0.80523000      10.12265000       0.00050900       0.00869200       0.06089600
C        3.71912000       3.22088000      10.12618000       0.16424800       0.01617200      -0.00381400
C       -2.32448000       4.56294000      10.12305000       0.00182900       0.01012200       0.05474300
C        0.46490000       1.34206000      10.12074000      -0.08282600      -0.19640400      -0.01119000
C       -0.00003000       3.75770000      10.12086000      -0.12659200       0.15966000      -0.02518500
C        2.78935000       0.53682000      10.12789000       0.10502200      -0.13790200      -0.02747900
C        2.32448000       2.95247000      10.12205000       0.19713900       0.03183600      -0.03844500
C        1.85954000       5.36812000      10.12658000       0.07771400       0.14436500      -0.00667000
C        4.64892000       2.14723000      10.12789000      -0.16702500      -0.01241200      -0.02753600
Li       0.92975000       2.68407000      12.00000000      -0.00081000      -0.00011900      -0.00000000
29
Lattice="6.508500099 0.0 0.0 -3.25425005 5.636526426 0.0 0.0 0.0 24.0" Properties=species:S:1:pos:R:3:forces:R:3 stress="-0.007714417898463944 3.0358700388296167e-05 -0.0 3.0358700388296167e-05 -0.007722606758437103 -0.0 -0.0 -0.0 0.004156083613724893" free_energy=-262.15770269 energy=-262.15692573 pbc="T T T"
C        0.00000000       0.00000000      13.87064000      -0.07155200      -0.15601500       0.02276500
C       -0.46487000       2.41565000      13.88209000      -0.19444600      -0.02815700       0.01449900
C       -0.92980000       4.83129000      13.87389000      -0.10590400       0.13273300       0.00887300
C        1.85958000       1.61041000      13.88197000       0.13885600      -0.16442700       0.01224900
C        1.39467000       4.02611000      13.88210000       0.06050700       0.19583400       0.01641200
C        4.18405000       0.80523000      13.87496000      -0.00020500       0.00181800      -0.02074100
C        3.71912000       3.22088000      13.87354000       0.16279100       0.01345500       0.01199400
C       -2.32448000       4.56294000      13.87473000       0.01142000       0.01092100      -0.02108700
C        0.46490000       1.34206000      13.88165000      -0.08353200      -0.19773200       0.00655900
C       -0.00003000       3.75770000      13.88226000      -0.12629700       0.15927800       0.00762300
C        2.78935000       0.53682000      13.87243000       0.10499000      -0.13775000       0.01803400
C        2.32448000       2.95247000      13.88130000       0.19633100       0.03402900       0.02099100
C        1.85954000       5.36812000      13.87313000       0.07414800       0.14826000       0.00561200
C        4.64892000       2.14723000      13.87243000      -0.16679100      -0.01246500       0.01662600
C        0.00000000       0.00000000      10.12936000      -0.07155200      -0.15601500      -0.02276500
C       -0.46487000       2.41565000      10.11791000      -0.19444600      -0.02815700      -0.01449900
C       -0.92980000       4.83129000      10.12611000      -0.10590400       0.13273300      -0.00887300
C        1.85958000       1.61041000      10.11803000       0.13885600      -0.16442700      -0.01224900
C        1.39467000       4.02611000      10.11790000       0.06050700       0.19583400      -0.01641200
C        4.18405000       0.80523000      10.12504000      -0.00020500       0.00181800       0.02074100
C        3.71912000       3.22088000      10.12646000       0.16279100       0.01345500      -0.01199400
C       -2.32448000       4.56294000      10.12527000       0.01142000       0.01092100       0.02108700
C        0.46490000       1.34206000      10.11835000      -0.08353200      -0.19773200      -0.00655900
C       -0.00003000       3.75770000      10.11774000      -0.12629700       0.15927800      -0.00762300
C        2.78935000       0.53682000      10.12757000       0.10499000      -0.13775000      -0.01803400
C        2.32448000       2.95247000      10.11870000       0.19633100       0.03402900      -0.02099100
C        1.85954000       5.36812000      10.12687000       0.07414800       0.14826000      -0.00561200
C        4.64892000       2.14723000      10.12757000      -0.16679100      -0.01246500      -0.01662600
Li       0.92969000       2.68408000      12.00000000      -0.00063600       0.00043300       0.00000000
29
Lattice="6.508500099 0.0 0.0 -3.25425005 5.636526426 0.0 0.0 0.0 24.0" Properties=species:S:1:pos:R:3:forces:R:3 stress="-0.007751286492870537 1.8056685901180265e-05 -0.0 1.8056685901180265e-05 -0.007749064515621723 -0.0 -0.0 -0.0 0.004168329454629875" free_energy=-262.15811206 energy=-262.15735724 pbc="T T T"
C        0.00000000       0.00000000      13.87047000      -0.07200000      -0.15551400       0.01611200
C       -0.46487000       2.41565000      13.88505000      -0.19214600      -0.02618600       0.00972400
C       -0.92980000       4.83129000      13.87426000      -0.10621800       0.13238300       0.00478300
C        1.85958000       1.61041000      13.88451000       0.14403100      -0.16475600       0.01366800
C        1.39467000       4.02611000      13.88508000       0.05702900       0.19686600       0.01332400
C        4.18405000       0.80523000      13.87228000      -0.00296700       0.00560200       0.01710600
C        3.71912000       3.22088000      13.87323000       0.16137800       0.01347200       0.01871000
C       -2.32448000       4.56294000      13.87225000       0.00855700       0.00775900       0.01409200
C        0.46490000       1.34206000      13.88432000      -0.07942900      -0.20219000      -0.00405200
C       -0.00003000       3.75770000      13.88574000      -0.12673700       0.15910900       0.00071700
C        2.78935000       0.53682000      13.87278000       0.10440900      -0.13741200       0.00760100
C        2.32448000       2.95247000      13.88505000       0.19591100       0.03566200      -0.00225200
C        1.85954000       5.36812000      13.87281000       0.07569500       0.14718600       0.00465500
C        4.64892000       2.14723000      13.87279000      -0.16699700      -0.01252300       0.00454700
C        0.00000000       0.00000000      10.12953000      -0.07200000      -0.15551400      -0.01611200
C       -0.46487000       2.41565000      10.11495000      -0.19214600      -0.02618600      -0.00972400
C       -0.92980000       4.83129000      10.12574000      -0.10621800       0.13238300      -0.00478300
C        1.85958000       1.61041000      10.11549000       0.14403100      -0.16475600      -0.01366800
C        1.39467000       4.02611000      10.11492000       0.05702900       0.19686600      -0.01332400
C        4.18405000       0.80523000      10.12772000      -0.00296700       0.00560200      -0.01710600
C        3.71912000       3.22088000      10.12677000       0.16137800       0.01347200      -0.01871000
C       -2.32448000       4.56294000      10.12775000       0.00855700       0.00775900      -0.01409200
C        0.46490000       1.34206000      10.11568000      -0.07942900      -0.20219000       0.00405200
C       -0.00003000       3.75770000      10.11426000      -0.12673700       0.15910900      -0.00071700
C        2.78935000       0.53682000      10.12722000       0.10440900      -0.13741200      -0.00760100
C        2.32448000       2.95247000      10.11495000       0.19591100       0.03566200       0.00225200
C        1.85954000       5.36812000      10.12719000       0.07569500       0.14718600      -0.00465500
C        4.64892000       2.14723000      10.12721000      -0.16699700      -0.01252300      -0.00454700
Li       0.92961000       2.68408000      12.00000000      -0.00103500       0.00108700      -0.00000000
29
Lattice="6.508500099 0.0 0.0 -3.25425005 5.636526426 0.0 0.0 0.0 24.0" Properties=species:S:1:pos:R:3:forces:R:3 stress="-0.0077109039288260715 1.9005395288314524e-05 -0.0 1.9005395288314524e-05 -0.007714130789044155 -0.0 -0.0 -0.0 0.004208243905489899" free_energy=-262.15828197 energy=-262.15753913 pbc="T T T"
C        0.00000000       0.00000000      13.87153000      -0.07162600      -0.15670500      -0.00686600
C       -0.46487000       2.41565000      13.88631000      -0.19025500      -0.02445400      -0.00467600
C       -0.92980000       4.83129000      13.87466000      -0.10618700       0.13289300       0.00480100
C        1.85958000       1.61041000      13.88595000       0.14429700      -0.16556900       0.00275800
C        1.39467000       4.02611000      13.88659000       0.05521500       0.19765000      -0.00618900
C        4.18405000       0.80523000      13.87290000      -0.00262600       0.00479300       0.01312500
C        3.71912000       3.22088000      13.87443000       0.16400700       0.01630300       0.00550000
C       -2.32448000       4.56294000      13.87271000       0.00903400       0.00734000       0.01771700
C        0.46490000       1.34206000      13.88458000      -0.07941000      -0.20080600       0.00963300
C       -0.00003000       3.75770000      13.88648000      -0.12632700       0.15808500       0.00063200
C        2.78935000       0.53682000      13.87337000       0.10384700      -0.13569300       0.00817500
C        2.32448000       2.95247000      13.88565000       0.19461800       0.03408400       0.01063900
C        1.85954000       5.36812000      13.87306000       0.07377000       0.14661600       0.01519300
C        4.64892000       2.14723000      13.87317000      -0.16813900      -0.01476400       0.01295800
C        0.00000000       0.00000000      10.12847000      -0.07162600      -0.15670500       0.00686600
C       -0.46487000       2.41565000      10.11369000      -0.19025500      -0.02445400       0.00467600
C       -0.92980000       4.83129000      10.12534000      -0.10618700       0.13289300      -0.00480100
C        1.85958000       1.61041000      10.11405000       0.14429700      -0.16556900      -0.00275800
C        1.39467000       4.02611000      10.11341000       0.05521500       0.19765000       0.00618900
C        4.18405000       0.80523000      10.12710000      -0.00262600       0.00479300      -0.01312500
C        3.71912000       3.22088000      10.12557000       0.16400700       0.01630300      -0.00550000
C       -2.32448000       4.56294000      10.12729000       0.00903400       0.00734000      -0.01771700
C        0.46490000       1.34206000      10.11542000      -0.07941000      -0.20080600      -0.00963300
C       -0.00003000       3.75770000      10.11352000      -0.12632700       0.15808500      -0.00063200
C        2.78935000       0.53682000      10.12663000       0.10384700      -0.13569300      -0.00817500
C        2.32448000       2.95247000      10.11435000       0.19461800       0.03408400      -0.01063900
C        1.85954000       5.36812000      10.12694000       0.07377000       0.14661600      -0.01519300
C        4.64892000       2.14723000      10.12683000      -0.16813900      -0.01476400      -0.01295800
Li       0.92953000       2.68415000      12.00000000      -0.00043100       0.00045500       0.00000000
29
Lattice="6.508500099 0.0 0.0 -3.25425005 5.636526426 0.0 0.0 0.0 24.0" Properties=species:S:1:pos:R:3:forces:R:3 stress="-0.007681712390644317 2.2868889437236256e-05 -0.0 2.2868889437236256e-05 -0.0076979278313533605 -0.0 -0.0 -0.0 0.004235419436223995" free_energy=-262.15829236 energy=-262.15755358 pbc="T T T"
C        0.00000000       0.00000000      13.87188000      -0.07185900      -0.15655800      -0.01048300
C       -0.46487000       2.41565000      13.88673000      -0.18929400      -0.02547400      -0.01201300
C       -0.92980000       4.83129000      13.87479000      -0.10645200       0.13314700       0.00546500
C        1.85958000       1.61041000      13.88644000       0.14634100      -0.16712800      -0.00583400
C        1.39467000       4.02611000      13.88709000       0.05469100       0.19757300      -0.01229400
C        4.18405000       0.80523000      13.87311000      -0.00287600       0.00505700       0.01181900
C        3.71912000       3.22088000      13.87484000       0.16385700       0.01659700       0.00250200
C       -2.32448000       4.56294000      13.87286000       0.00877900       0.00759700       0.02043800
C        0.46490000       1.34206000      13.88467000      -0.07956700      -0.20048100       0.01472200
C       -0.00003000       3.75770000      13.88674000      -0.12656600       0.15828500       0.00272500
C        2.78935000       0.53682000      13.87357000       0.10353500      -0.13532800       0.00966500
C        2.32448000       2.95247000      13.88585000       0.19429100       0.03433600       0.01557800
C        1.85954000       5.36812000      13.87314000       0.07350700       0.14672600       0.01939600
C        4.64892000       2.14723000      13.87330000      -0.16808800      -0.01474100       0.01440500
C        0.00000000       0.00000000      10.12812000      -0.07185900      -0.15655800       0.01048300
C       -0.46487000       2.41565000      10.11327000      -0.18929400      -0.02547400       0.01201300
C       -0.92980000       4.83129000      10.12521000      -0.10645200       0.13314700      -0.00546500
C        1.85958000       1.61041000      10.11356000       0.14634100      -0.16712800       0.00583400
C        1.39467000       4.02611000      10.11291000       0.05469100       0.19757300       0.01229400
C        4.18405000       0.80523000      10.12689000      -0.00287600       0.00505700      -0.01181900
C        3.71912000       3.22088000      10.12516000       0.16385700       0.01659700      -0.00250200
C       -2.32448000       4.56294000      10.12714000       0.00877900       0.00759700      -0.02043800
C        0.46490000       1.34206000      10.11533000      -0.07956700      -0.20048100      -0.01472200
C       -0.00003000       3.75770000      10.11326000      -0.12656600       0.15828500      -0.00272500
C        2.78935000       0.53682000      10.12643000       0.10353500      -0.13532800      -0.00966500
C        2.32448000       2.95247000      10.11415000       0.19429100       0.03433600      -0.01557800
C        1.85954000       5.36812000      10.12686000       0.07350700       0.14672600      -0.01939600
C        4.64892000       2.14723000      10.12670000      -0.16808800      -0.01474100      -0.01440500
Li       0.92950000       2.68417000      12.00000000      -0.00059800       0.00078000      -0.00000000
29
Lattice="6.508500099 0.0 0.0 -3.25425005 5.636526426 0.0 0.0 0.0 24.0" Properties=species:S:1:pos:R:3:forces:R:3 stress="-0.007669491515775837 2.353048940457988e-05 -0.0 2.353048940457988e-05 -0.007655042422149418 -0.0 -0.0 -0.0 0.004274353970151254" free_energy=-262.15841482 energy=-262.15768414 pbc="T T T"
C        0.00000000       0.00000000      13.87213000      -0.07257400      -0.15562400      -0.00233000
C       -0.46487000       2.41565000      13.88704000      -0.18990200      -0.02464300      -0.00794000
C       -0.92980000       4.83129000      13.87518000      -0.10719600       0.13395200       0.01013700
C        1.85958000       1.61041000      13.88703000       0.14477500      -0.16797200      -0.00807200
C        1.39467000       4.02611000      13.88753000       0.05240700       0.19780500      -0.01119600
C        4.18405000       0.80523000      13.87382000      -0.00173600       0.00372600       0.01060000
C        3.71912000       3.22088000      13.87557000       0.16284700       0.01436700       0.00547600
C       -2.32448000       4.56294000      13.87375000       0.01027700       0.01133200       0.01201900
C        0.46490000       1.34206000      13.88527000      -0.08027000      -0.19959900       0.01133200
C       -0.00003000       3.75770000      13.88723000      -0.12726500       0.15902800       0.00119500
C        2.78935000       0.53682000      13.87419000       0.10272500      -0.13445800       0.01002500
C        2.32448000       2.95247000      13.88666000       0.19900700       0.03180600       0.00862600
C        1.85954000       5.36812000      13.87389000       0.07636200       0.14356000       0.01470700
C        4.64892000       2.14723000      13.87396000      -0.16893600      -0.01402300       0.01450000
C        0.00000000       0.00000000      10.12787000      -0.07257400      -0.15562400       0.00233000
C       -0.46487000       2.41565000      10.11296000      -0.18990200      -0.02464300       0.00794000
C       -0.92980000       4.83129000      10.12482000      -0.10719600       0.13395200      -0.01013700
C        1.85958000       1.61041000      10.11297000       0.14477500      -0.16797200       0.00807200
C        1.39467000       4.02611000      10.11247000       0.05240700       0.19780500       0.01119600
C        4.18405000       0.80523000      10.12618000      -0.00173600       0.00372600      -0.01060000
C        3.71912000       3.22088000      10.12443000       0.16284700       0.01436700      -0.00547600
C       -2.32448000       4.56294000      10.12625000       0.01027700       0.01133200      -0.01201900
C        0.46490000       1.34206000      10.11473000      -0.08027000      -0.19959900      -0.01133200
C       -0.00003000       3.75770000      10.11277000      -0.12726500       0.15902800      -0.00119500
C        2.78935000       0.53682000      10.12581000       0.10272500      -0.13445800      -0.01002500
C        2.32448000       2.95247000      10.11334000       0.19900700       0.03180600      -0.00862600
C        1.85954000       5.36812000      10.12611000       0.07636200       0.14356000      -0.01470700
C        4.64892000       2.14723000      10.12604000      -0.16893600      -0.01402300      -0.01450000
Li       0.92944000       2.68424000      12.00000000      -0.00103900       0.00148500       0.00000000
29
Lattice="6.508500099 0.0 0.0 -3.25425005 5.636526426 0.0 0.0 0.0 24.0" Properties=species:S:1:pos:R:3:forces:R:3 stress="-0.00765944892759229 5.4301129395184345e-06 -0.0 5.4301129395184345e-06 -0.007678647809663508 -0.0 -0.0 -0.0 0.004338379370764565" free_energy=-262.15864797 energy=-262.15794056 pbc="T T T"
C        0.00000000       0.00000000      13.87287000      -0.07175200      -0.15622600       0.02208600
C       -0.46487000       2.41565000      13.88796000      -0.18827500      -0.02363000      -0.00117900
C       -0.92980000       4.83129000      13.87634000      -0.10715100       0.13041600       0.01913400
C        1.85958000       1.61041000      13.88883000       0.14740300      -0.16754500      -0.00816000
C        1.39467000       4.02611000      13.88882000       0.05307900       0.19628000       0.00169600
C        4.18405000       0.80523000      13.87594000      -0.00018500       0.00284500       0.01126500
C        3.71912000       3.22088000      13.87777000       0.15701100       0.01347900       0.00522900
C       -2.32448000       4.56294000      13.87641000       0.00137500       0.00983900      -0.01249700
C        0.46490000       1.34206000      13.88708000      -0.08773200      -0.19949200      -0.00388400
C       -0.00003000       3.75770000      13.88870000      -0.12637300       0.15787800      -0.00358800
C        2.78935000       0.53682000      13.87605000       0.10819500      -0.13918900       0.01041900
C        2.32448000       2.95247000      13.88910000       0.19968600       0.03080300       0.00160400
C        1.85954000       5.36812000      13.87612000       0.08193100       0.15338700      -0.00236000
C        4.64892000       2.14723000      13.87593000      -0.16750600      -0.00896300       0.01412400
C        0.00000000       0.00000000      10.12713000      -0.07175200      -0.15622600      -0.02208600
C       -0.46487000       2.41565000      10.11204000      -0.18827500      -0.02363000       0.00117900
C       -0.92980000       4.83129000      10.12366000      -0.10715100       0.13041600      -0.01913400
C        1.85958000       1.61041000      10.11117000       0.14740300      -0.16754500       0.00816000
C        1.39467000       4.02611000      10.11118000       0.05307900       0.19628000      -0.00169600
C        4.18405000       0.80523000      10.12406000      -0.00018500       0.00284500      -0.01126500
C        3.71912000       3.22088000      10.12223000       0.15701100       0.01347900      -0.00522900
C       -2.32448000       4.56294000      10.12359000       0.00137500       0.00983900       0.01249700
C        0.46490000       1.34206000      10.11292000      -0.08773200      -0.19949200       0.00388400
C       -0.00003000       3.75770000      10.11130000      -0.12637300       0.15787800       0.00358800
C        2.78935000       0.53682000      10.12395000       0.10819500      -0.13918900      -0.01041900
C        2.32448000       2.95247000      10.11090000       0.19968600       0.03080300      -0.00160400