29
Lattice="6.508500099 0.0 0.0 -3.25425005 5.636526426 0.0 0.0 0.0 24.0" Properties=species:S:1:pos:R:3:forces:R:3 stress="-0.007731245007067326 1.3019788036592478e-05 9.986414601413215e-08 1.3019788036592478e-05 -0.007720578267971192 -3.6200752930122895e-06 9.986414601413215e-08 -3.6200752930122895e-06 -0.007010544189810712" free_energy=-261.20560316 energy=-261.20354793 pbc="T T T"
C        0.00000000       0.00000000      13.67500000      -0.07615100      -0.30960100       0.15232200
C       -0.46487000       2.41565000      13.67500000      -0.22874900       0.21565000       0.18500200
C       -0.92980000       4.83129000      13.67500000       0.04563100      -0.11147500       0.04760300
C        1.85958000       1.61041000      13.67500000       0.30489500       0.08609500       0.18815300
C        1.39467000       4.02611000      13.67500000       0.06422600       0.10038300       0.04759600
C        4.18405000       0.80523000      13.67500000      -0.11977200       0.01064500       0.05065900
C        3.71912000       3.22088000      13.67500000      -0.00470400      -0.00152000       0.03669200
C       -2.32448000       4.56294000      13.67500000       0.06307600      -0.08707100       0.05131800
C        0.46490000       1.34206000      13.67500000      -0.01261500       0.00022700       3.80833100
C       -0.00003000       3.75770000      13.67500000      -0.00460600       0.18617500       0.04111100
C        2.78935000       0.53682000      13.67500000       0.16793100      -0.08388900       0.02622200
C        2.32448000       2.95247000      13.67500000       0.05731900       0.09437700       0.03571400
C        1.85954000       5.36812000      13.67500000      -0.14678200      -0.11009400       0.04182700
C        4.64892000       2.14723000      13.67500000      -0.10861700       0.00363600       0.03576000
C        0.00000000       0.00000000      10.32500000      -0.10109100      -0.27990500      -0.18681000
C       -0.46487000       2.41565000      10.32500000      -0.18628600       0.23111300      -0.22240200
C       -0.92980000       4.83129000      10.32500000       0.11320300      -0.15586900      -0.00795900
C        1.85958000       1.61041000      10.32500000       0.29854200       0.04781700      -0.21957000
C        1.39467000       4.02611000      10.32500000       0.07714500       0.17843800      -0.00796600
C        4.18405000       0.80523000      10.32500000      -0.18389400      -0.01670900      -0.00487600
C        3.71912000       3.22088000      10.32500000      -0.00211000       0.00207900      -0.05093000
C       -1.39467000       3.48929000      10.32500000      -0.10375000       0.14681900       0.00193900
C        1.39471000       0.26841000      10.32500000       0.18133500      -0.21462800      -0.21170700
C        0.92977000       2.68406000      10.32500000       0.09703300       0.27742000      -0.19621100
C        0.46490000       5.09970000      10.32500000      -0.00297700      -0.00282700      -0.04252700
C        3.25428000       1.87882000      10.32500000       0.17806500       0.01374500      -0.01300800
C        2.78935000       4.29447000      10.32500000      -0.06527100      -0.16476400      -0.01368900
C        5.57873000       1.07359000      10.32500000      -0.29989100      -0.06256200      -0.21185900
Li       0.46490000       1.34206000      12.00000000      -0.00113400       0.00629600      -3.36073400
29
Lattice="6.508500099 0.0 0.0 -3.25425005 5.636526426 0.0 0.0 0.0 24.0" Properties=species:S:1:pos:R:3:forces:R:3 stress="-0.007937938823280076 8.862942958754227e-07 1.9223848107720436e-06 8.862942958754227e-07 -0.007894903617857111 4.169328096090017e-06 1.9223848107720436e-06 4.169328096090017e-06 -0.0017823752780602301" free_energy=-261.53962048 energy=-261.53758385 pbc="T T T"
C        0.00000000       0.00000000      13.68235000      -0.01212200      -0.10520000       1.01962600
C       -0.46487000       2.41565000      13.68393000      -0.07978300       0.06903900       1.02373900
C       -0.92980000       4.83129000      13.67730000       0.04032700      -0.09238200       0.01458400
C        1.85958000       1.61041000      13.68408000       0.10998200       0.03851100       1.01379600
C        1.39467000       4.02611000      13.67730000       0.03874900       0.08570200       0.01458600
C        4.18405000       0.80523000      13.67744000      -0.09578600       0.00834600       0.01005000
C        3.71912000       3.22088000      13.67677000      -0.00559500      -0.00472300      -0.23163100
C       -2.32448000       4.56294000      13.67748000       0.05195800      -0.09331600       0.00754800
C        0.46490000       1.34206000      13.85872000      -0.01568100      -0.00029400      -1.53397800
C       -0.00003000       3.75770000      13.67698000      -0.00593700       0.17360400       0.01635500
C        2.78935000       0.53682000      13.67627000       0.16049900      -0.08163100       0.00449100
C        2.32448000       2.95247000      13.67672000       0.05763700       0.09328000       0.01369400
C        1.85954000       5.36812000      13.67702000      -0.13582200      -0.09724200      -0.00147500
C        4.64892000       2.14723000      13.67673000      -0.11337500       0.01203700       0.01378100
C        0.00000000       0.00000000      10.31599000      -0.15115100      -0.41234000      -0.32764700
C       -0.46487000       2.41565000      10.31427000      -0.26764700       0.34900200      -0.32318600
C       -0.92980000       4.83129000      10.32462000       0.12352500      -0.16924300      -0.04122400
C        1.85958000       1.61041000      10.31441000       0.44672300       0.06791300      -0.32828800
C        1.39467000       4.02611000      10.32462000       0.08235800       0.19460900      -0.04133300
C        4.18405000       0.80523000      10.32476000      -0.20210400      -0.02053700      -0.04516500
C        3.71912000       3.22088000      10.32254000      -0.00775900      -0.00146000      -0.00458000
C       -1.39467000       3.48929000      10.32509000      -0.11511900       0.15712500      -0.04190000
C        1.39471000       0.26841000      10.31479000       0.26387400      -0.32765100      -0.31345900
C        0.92977000       2.68406000      10.31553000       0.15069900       0.40500200      -0.33107100
C        0.46490000       5.09970000      10.32295000      -0.00777800      -0.00069800      -0.00300300
C        3.25428000       1.87882000      10.32437000       0.19229600       0.01618900      -0.04905000
C        2.78935000       4.29447000      10.32434000      -0.07836800      -0.17337700      -0.03266100
C        5.57873000       1.07359000      10.31478000      -0.42303400      -0.09113100      -0.31369600
Li       0.46485000       1.34236000      11.83787000      -0.00156700       0.00086600       0.81109700
29
Lattice="6.508500099 0.0 0.0 -3.25425005 5.636526426 0.0 0.0 0.0 24.0" Properties=species:S:1:pos:R:3:forces:R:3 stress="-0.007915307111189623 1.0566874950120356e-05 2.2843923400732724e-06 1.0566874950120356e-05 -0.007879256154478521 1.0535667404490939e-05 2.2843923400732724e-06 1.0535667404490939e-05 -0.0028115002687723657" free_energy=-261.5978064 energy=-261.59576277 pbc="T T T"
C        0.00000000       0.00000000      13.68003000      -0.04457300      -0.20467700       0.73006400
C       -0.46487000       2.41565000      13.68111000      -0.14932200       0.14321800       0.74222800
C       -0.92980000       4.83129000      13.67657000       0.04222200      -0.09250000       0.02329300
C        1.85958000       1.61041000      13.68121000       0.20501600       0.06034500       0.73990400
C        1.39467000       4.02611000      13.67657000       0.04238500       0.08533700       0.02327300
C        4.18405000       0.80523000      13.67667000      -0.10056200       0.00425900       0.02183000
C        3.71912000       3.22088000      13.67621000      -0.00618200      -0.00232900      -0.14637300
C       -2.32448000       4.56294000      13.67669000       0.05695800      -0.09342300       0.01981900
C        0.46490000       1.34206000      13.80071000      -0.00403600       0.00658700      -0.23732700
C       -0.00003000       3.75770000      13.67636000       0.00270500       0.17966800       0.02476200
C        2.78935000       0.53682000      13.67587000       0.16284800      -0.09246000       0.01454100
C        2.32448000       2.95247000      13.67618000       0.05499700       0.09770800       0.02413800
C        1.85954000       5.36812000      13.67638000      -0.14452200      -0.09263800       0.01033900
C        4.64892000       2.14723000      13.67618000      -0.11564900       0.01008100       0.02420600
C        0.00000000       0.00000000      10.31883000      -0.13292200      -0.36304200      -0.27289900
C       -0.46487000       2.41565000      10.31766000      -0.23764400       0.30497600      -0.28373600
C       -0.92980000       4.83129000      10.32474000       0.12088000      -0.16582700      -0.03063200
C        1.85958000       1.61041000      10.31775000       0.39323400       0.06055500      -0.28579200
C        1.39467000       4.02611000      10.32474000       0.08109000       0.19042600      -0.03071400
C        4.18405000       0.80523000      10.32484000      -0.19734400      -0.01947800      -0.03236700
C        3.71912000       3.22088000      10.32332000      -0.00489900      -0.00121500      -0.01684500
C       -1.39467000       3.48929000      10.32506000      -0.11179300       0.15449100      -0.02782100
C        1.39471000       0.26841000      10.31801000       0.23125700      -0.28520500      -0.27351300
C        0.92977000       2.68406000      10.31852000       0.13218400       0.35737200      -0.28255000
C        0.46490000       5.09970000      10.32360000      -0.00753900      -0.00046900      -0.01402900
C        3.25428000       1.87882000      10.32457000       0.18845300       0.01531600      -0.03745600
C        2.78935000       4.29447000      10.32455000      -0.07527900      -0.17083800      -0.02864300
C        5.57873000       1.07359000      10.31801000      -0.37595800      -0.08375600      -0.27389000
Li       0.46486000       1.34226000      11.88907000      -0.00600700      -0.00248100      -0.12381100
29
Lattice="6.508500099 0.0 0.0 -3.25425005 5.636526426 0.0 0.0 0.0 24.0" Properties=species:S:1:pos:R:3:forces:R:3 stress="-0.007889148946443048 9.274882561062523e-06 2.3823840333496397e-05 9.274882561062523e-06 -0.007883781248594787 5.561184631161982e-06 2.3823840333496397e-05 5.561184631161982e-06 -0.002407811941528488" free_energy=-261.67182286 energy=-261.6698203 pbc="T T T"
C        0.00000000       0.00000000      13.71354000      -0.06339600      -0.24324100       0.28933800
C       -0.46487000       2.41565000      13.71527000      -0.17305200       0.18009200       0.24842500
C       -0.92980000       4.83129000      13.67778000       0.03062700      -0.09169100      -0.01533900
C        1.85958000       1.61041000      13.71528000       0.25556500       0.06291500       0.23897700
C        1.39467000       4.02611000      13.67778000       0.04234300       0.07728400      -0.01545400
C        4.18405000       0.80523000      13.67783000      -0.09100400       0.01596000      -0.01989700
C        3.71912000       3.22088000      13.66972000      -0.01024500      -0.00374000      -0.08573500
C       -2.32448000       4.56294000      13.67776000       0.04784000      -0.07461100       0.15923800
C        0.46490000       1.34206000      13.80279000      -0.00161900       0.01061200       0.19681600
C       -0.00003000       3.75770000      13.67761000       0.00351200       0.15032100       0.16833700
C        2.78935000       0.53682000      13.67661000       0.13446900      -0.07806900       0.15803000
C        2.32448000       2.95247000      13.67739000       0.04295900       0.08045800       0.16117600
C        1.85954000       5.36812000      13.67699000      -0.12122100      -0.07653100       0.15650600
C        4.64892000       2.14723000      13.67739000      -0.09548900       0.00639200       0.16120000
C        0.00000000       0.00000000      10.30587000      -0.13610900      -0.37035500      -0.25382200
C       -0.46487000       2.41565000      10.30409000      -0.22644400       0.31298000      -0.24051300
C       -0.92980000       4.83129000      10.32333000       0.12223500      -0.16769400      -0.05772800
C        1.85958000       1.61041000      10.30410000       0.40898800       0.05102300      -0.24674900
C        1.39467000       4.02611000      10.32332000       0.07765900       0.18967100      -0.06048100
C        4.18405000       0.80523000      10.32336000      -0.19995500      -0.01646000      -0.06088400
C        3.71912000       3.22088000      10.32239000      -0.00830500      -0.00128400      -0.01072200
C       -1.39467000       3.48929000      10.32381000      -0.11354800       0.14744900      -0.06670100
C        1.39471000       0.26841000      10.30494000       0.23142700      -0.28424800      -0.24186000
C        0.92977000       2.68406000      10.30509000       0.12936300       0.36640100      -0.24878200
C        0.46490000       5.09970000      10.32282000      -0.00831100      -0.00053200      -0.00898100
C        3.25428000       1.87882000      10.32283000       0.18717300       0.01540700      -0.07318500
C        2.78935000       4.29447000      10.32321000      -0.07619800      -0.17068000      -0.05795100
C        5.57873000       1.07359000      10.30492000      -0.38776700      -0.08958400      -0.24252000
Li       0.46459000       1.34217000      11.87217000      -0.00150000       0.00175500       0.06926000
29
Lattice="6.508500099 0.0 0.0 -3.25425005 5.636526426 0.0 0.0 0.0 24.0" Properties=species:S:1:pos:R:3:forces:R:3 stress="-0.007832188934160236 4.593750716650079e-06 1.007379572917558e-05 4.593750716650079e-06 -0.007838673862142029 -1.2876233326697163e-05 1.007379572917558e-05 -1.2876233326697163e-05 -0.0020368540881407424" free_energy=-261.69276465 energy=-261.69079917 pbc="T T T"
C        0.00000000       0.00000000      13.74189000      -0.08062600      -0.28864200      -0.11930000
C       -0.46487000       2.41565000      13.74419000      -0.20733300       0.21136200      -0.16029300
C       -0.92980000       4.83129000      13.67881000       0.02734200      -0.08848100      -0.04709600
C        1.85958000       1.61041000      13.74412000       0.29333200       0.07024900      -0.17073000
C        1.39467000       4.02611000      13.67881000       0.04592600       0.06863000      -0.04728500
C        4.18405000       0.80523000      13.67881000      -0.08791700       0.01714800      -0.05410700
C        3.71912000       3.22088000      13.66423000      -0.00982700      -0.00560700      -0.03182400
C       -2.32448000       4.56294000      13.67867000       0.03502800      -0.04980700       0.27426900
C        0.46490000       1.34206000      13.80455000      -0.00054200       0.01029200       0.57576500
C       -0.00003000       3.75770000      13.67868000       0.00287500       0.11538500       0.28119400
C        2.78935000       0.53682000      13.67724000       0.10774400      -0.05778800       0.28607300
C        2.32448000       2.95247000      13.67841000       0.02897200       0.05449000       0.28225900
C        1.85954000       5.36812000      13.67750000      -0.08965700      -0.06325200       0.28321000
C        4.64892000       2.14723000      13.67842000      -0.06473800       0.01044000       0.28225300
C        0.00000000       0.00000000      10.29490000      -0.13787100      -0.37845300      -0.24821900
C       -0.46487000       2.41565000      10.29260000      -0.23752200       0.32270300      -0.20293500
C       -0.92980000       4.83129000      10.32213000       0.11926800      -0.17138200      -0.08498400
C        1.85958000       1.61041000      10.29254000       0.41449400       0.05894100      -0.21025400
C        1.39467000       4.02611000      10.32212000       0.07484500       0.19222100      -0.08998900
C        4.18405000       0.80523000      10.32211000      -0.19605700      -0.01420400      -0.09048400
C        3.71912000       3.22088000      10.32160000      -0.00735800      -0.00146600      -0.00458200
C       -1.39467000       3.48929000      10.32275000      -0.11084100       0.14649400      -0.09450800
C        1.39471000       0.26841000      10.29388000       0.23812100      -0.29227100      -0.20628700
C        0.92977000       2.68406000      10.29373000       0.13310700       0.37291200      -0.22960700
C        0.46490000       5.09970000      10.32216000      -0.00853000       0.00142000      -0.00195100
C        3.25428000       1.87882000      10.32136000       0.18582000       0.01492600      -0.09439000
C        2.78935000       4.29447000      10.32207000      -0.07170400      -0.17009400      -0.08483100
C        5.57873000       1.07359000      10.29384000      -0.39390400      -0.08899900      -0.20669500
Li       0.46436000       1.34210000      11.85787000      -0.00244700       0.00283200       0.21532600
29
Lattice="6.508500099 0.0 0.0 -3.25425005 5.636526426 0.0 0.0 0.0 24.0" Properties=species:S:1:pos:R:3:forces:R:3 stress="-0.007738098184087546 1.618423316341529e-05 5.529977085532567e-06 1.618423316341529e-05 -0.007735851240802227 2.0596980115414753e-07 5.529977085532567e-06 2.0596980115414753e-07 -0.0012816876574910012" free_energy=-261.74257395 energy=-261.74064633 pbc="T T T"
C        0.00000000       0.00000000      13.75954000      -0.07699200      -0.27972700      -0.05174100
C       -0.46487000       2.41565000      13.76014000      -0.20166500       0.21507300      -0.05062900
C       -0.92980000       4.83129000      13.67719000       0.02146400      -0.09018800       0.20713100
C        1.85958000       1.61041000      13.75945000       0.29068600       0.07698700      -0.05105400
C        1.39467000       4.02611000      13.67718000       0.04753900       0.06565700       0.20859800
C        4.18405000       0.80523000      13.67678000      -0.08422600       0.01947100       0.20859400
C        3.71912000       3.22088000      13.65790000      -0.00842200      -0.00682900       0.26484900
C       -2.32448000       4.56294000      13.69392000       0.03513600      -0.04681100       0.07752800
C        0.46490000       1.34206000      13.83646000      -0.00353800       0.00012800       0.24525000
C       -0.00003000       3.75770000      13.69444000       0.00278900       0.11671800       0.06933400
C        2.78935000       0.53682000      13.69289000       0.10775300      -0.05502100       0.06809800
C        2.32448000       2.95247000      13.69420000       0.04050800       0.05434400       0.06201400
C        1.85954000       5.36812000      13.69290000      -0.08210600      -0.06856100       0.08154300
C        4.64892000       2.14723000      13.69421000      -0.07167800       0.01092000       0.06307100
C        0.00000000       0.00000000      10.27252000      -0.13410300      -0.37135600      -0.16566300
C       -0.46487000       2.41565000      10.27218000      -0.24532700       0.30851400      -0.13129900
C       -0.92980000       4.83129000      10.31663000       0.12240600      -0.16988900      -0.10661700
C        1.85958000       1.61041000      10.27167000       0.39852000       0.06264200      -0.13516100
C        1.39467000       4.02611000      10.31636000       0.06323800       0.17885900      -0.11512800
C        4.18405000       0.80523000      10.31627000      -0.19176300      -0.00861900      -0.10965500
C        3.71912000       3.22088000      10.32069000      -0.00713900      -0.00584700      -0.05205300
C       -1.39467000       3.48929000      10.31687000      -0.10856600       0.13751000      -0.11580400
C        1.39471000       0.26841000      10.27363000       0.24225200      -0.28480800      -0.15863700
C        0.92977000       2.68406000      10.27200000       0.13225000       0.36245100      -0.15609500
C        0.46490000       5.09970000      10.32150000      -0.00766300       0.00174500      -0.05741700
C        3.25428000       1.87882000      10.31514000       0.17756900       0.01427400      -0.09633000
C        2.78935000       4.29447000      10.31663000      -0.06591800      -0.15792700      -0.12066600
C        5.57873000       1.07359000      10.27356000      -0.39191600      -0.08139400      -0.15892500
Li       0.46403000       1.34218000      11.85717000      -0.00108700       0.00168300       0.27686500
29
Lattice="6.508500099 0.0 0.0 -3.25425005 5.636526426 0.0 0.0 0.0 24.0" Properties=species:S:1:pos:R:3:forces:R:3 stress="-0.0075111257047248015 3.9165469764917445e-05 8.632007121096547e-06 3.9165469764917445e-05 -0.007491046769866835 -1.97231688377911e-06 8.632007121096547e-06 -1.97231688377911e-06 -0.0004975418999697839" free_energy=-261.75530228 energy=-261.75341092 pbc="T T T"
C        0.00000000       0.00000000      13.77664000      -0.07359700      -0.26817500      -0.00452100
C       -0.46487000       2.41565000      13.77560000      -0.19168000       0.20538100       0.04784400
C       -0.92980000       4.83129000      13.67562000       0.01824000      -0.08593800       0.46252800
C        1.85958000       1.61041000      13.77431000       0.27893900       0.07115800       0.05891200
C        1.39467000       4.02611000      13.67559000       0.04983900       0.05278800       0.46563200
C        4.18405000       0.80523000      13.67481000      -0.07663300       0.02439100       0.46960700
C        3.71912000       3.22088000      13.65177000      -0.00835600      -0.00363600       0.55249800
C       -2.32448000       4.56294000      13.70872000       0.03191500      -0.05256200      -0.13450200
C        0.46490000       1.34206000      13.86741000      -0.00668800       0.00388600      -0.06702800
C       -0.00003000       3.75770000      13.70971000       0.00509500       0.12021100      -0.14565900
C        2.78935000       0.53682000      13.70806000       0.10861300      -0.05743400      -0.13546100
C        2.32448000       2.95247000      13.70950000       0.04856100       0.06152000      -0.14778700
C        1.85954000       5.36812000      13.70783000      -0.08370500      -0.06454800      -0.12520900
C        4.64892000       2.14723000      13.70951000      -0.07806700       0.01614700      -0.14543900
C        0.00000000       0.00000000      10.25082000      -0.13326700      -0.37061800      -0.04500300
C       -0.46487000       2.41565000      10.25238000      -0.24452600       0.30557600      -0.08108400
C       -0.92980000       4.83129000      10.31130000       0.11266400      -0.16572900      -0.11589400
C        1.85958000       1.61041000      10.25144000       0.39628300       0.05993200      -0.07652200
C        1.39467000       4.02611000      10.31077000       0.05340800       0.17115400      -0.12778800
C        4.18405000       0.80523000      10.31061000      -0.17959800      -0.00187800      -0.11740300
C        3.71912000       3.22088000      10.31981000      -0.00717400      -0.00561500      -0.10363100
C       -1.39467000       3.48929000      10.31116000      -0.09564700       0.13272200      -0.13041500
C        1.39471000       0.26841000      10.25400000       0.24101200      -0.28292600      -0.11182200
C        0.92977000       2.68406000      10.25093000       0.12265900       0.33980900      -0.07480000
C        0.46490000       5.09970000      10.32086000      -0.00765600       0.00253800      -0.10999400
C        3.25428000       1.87882000      10.30910000       0.16486700       0.01383600      -0.11482100
C        2.78935000       4.29447000      10.31136000      -0.05477000      -0.14235700      -0.15307400
C        5.57873000       1.07359000      10.25390000      -0.39008800      -0.08082600      -0.11184600
Li       0.46371000       1.34226000      11.85649000      -0.00064300       0.00119400       0.32268200
29
Lattice="6.508500099 0.0 0.0 -3.25425005 5.636526426 0.0 0.0 0.0 24.0" Properties=species:S:1:pos:R:3:forces:R:3 stress="-0.007350275773041663 5.0312805063744946e-05 1.2838784271941863e-05 5.0312805063744946e-05 -0.007352803584237647 -1.8156550047194397e-05 1.2838784271941863e-05 -1.8156550047194397e-05 9.637514241276338e-05" free_energy=-261.79040196 energy=-261.78853945 pbc="T T T"
C        0.00000000       0.00000000      13.78956000      -0.06973000      -0.26578500      -0.00227100
C       -0.46487000       2.41565000      13.78901000      -0.19751300       0.20190000       0.02671200
C       -0.92980000       4.83129000      13.68983000       0.02360900      -0.10107300       0.32801600
C        1.85958000       1.61041000      13.78763000       0.27139800       0.07552100       0.03757900
C        1.39467000       4.02611000      13.68991000       0.04300100       0.06137400       0.33061100
C        4.18405000       0.80523000      13.68896000      -0.08539400       0.03962700       0.33740800
C        3.71912000       3.22088000      13.66551000      -0.00750100      -0.00625700       0.41579400
C       -2.32448000       4.56294000      13.71553000       0.02354700      -0.04894400      -0.02697300
C        0.46490000       1.34206000      13.88880000      -0.01144500      -0.00903400      -0.21464600
C       -0.00003000       3.75770000      13.71653000       0.00414700       0.10847000      -0.03252100
C        2.78935000       0.53682000      13.71514000       0.10056600      -0.05983600      -0.03404800
C        2.32448000       2.95247000      13.71626000       0.03546400       0.05186600      -0.04510200
C        1.85954000       5.36812000      13.71506000      -0.07532200      -0.05671900      -0.02277300
C        4.64892000       2.14723000      13.71635000      -0.05831800       0.01792600      -0.04418900
C        0.00000000       0.00000000      10.23275000      -0.12796600      -0.36264600       0.02007700
C       -0.46487000       2.41565000      10.23455000      -0.23923400       0.31047700      -0.03593000
C       -0.92980000       4.83129000      10.30336000       0.09495000      -0.15592600      -0.13251900
C        1.85958000       1.61041000      10.23343000       0.39352200       0.06908000      -0.02880500
C        1.39467000       4.02611000      10.30224000       0.05473600       0.16733900      -0.13718900
C        4.18405000       0.80523000      10.30237000      -0.15756400      -0.00057800      -0.12747600
C        3.71912000       3.22088000      10.31568000      -0.00854000      -0.00890300      -0.16448900
C       -1.39467000       3.48929000      10.30245000      -0.08638100       0.12190400      -0.13005200
C        1.39471000       0.26841000      10.23528000       0.24021000      -0.28386900      -0.04341600
C        0.92977000       2.68406000      10.23234000       0.11088200       0.32970600      -0.01502400
C        0.46490000       5.09970000      10.31671000      -0.00509000       0.00396300      -0.15953300
C        3.25428000       1.87882000      10.30066000       0.15468500       0.01181000      -0.11847600
C        2.78935000       4.29447000      10.30223000      -0.04705200      -0.13559100      -0.15473300
C        5.57873000       1.07359000      10.23515000      -0.37658300      -0.07475500      -0.04526700
Li       0.46345000       1.34237000      11.86673000       0.00291600      -0.00104600       0.21923600
29
Lattice="6.508500099 0.0 0.0 -3.25425005 5.636526426 0.0 0.0 0.0 24.0" Properties=species:S:1:pos:R:3:forces:R:3 stress="-0.007031715388765708 4.623709960454317e-05 -2.5309319505456615e-05 4.623709960454317e-05 -0.007059571243994525 -1.1946248466940557e-05 -2.5309319505456615e-05 -1.1946248466940557e-05 0.0010151752178157861" free_energy=-261.8168225 energy=-261.81498226 pbc="T T T"
C        0.00000000       0.00000000      13.80782000      -0.06704000      -0.26056300      -0.03439100
C       -0.46487000       2.41565000      13.80796000      -0.19568000       0.19865500      -0.01763400
C       -0.92980000       4.83129000      13.70994000       0.02735000      -0.10475600       0.15701100
C        1.85958000       1.61041000      13.80646000       0.26356400       0.06944100      -0.00538100
C        1.39467000       4.02611000      13.71015000       0.04464700       0.07066700       0.15880700
C        4.18405000       0.80523000      13.70897000      -0.09281100       0.03847100       0.16833300
C        3.71912000       3.22088000      13.68494000      -0.01227900      -0.01311800       0.22310200
C       -2.32448000       4.56294000      13.72516000       0.02865400      -0.03125200       0.11093500
C        0.46490000       1.34206000      13.91906000      -0.00619800      -0.00795600      -0.41769700
C       -0.00003000       3.75770000      13.72616000       0.00114100       0.09528200       0.11163300
C        2.78935000       0.53682000      13.72514000       0.08788400      -0.04208800       0.12055900
C        2.32448000       2.95247000      13.72581000       0.03169200       0.03672800       0.11263500
C        1.85954000       5.36812000      13.72529000      -0.07039200      -0.06125000       0.11382800
C        4.64892000       2.14723000      13.72602000      -0.04463300       0.01043300       0.11136400
C        0.00000000       0.00000000      10.20719000      -0.12420600      -0.35321300       0.05880300
C       -0.46487000       2.41565000      10.20934000      -0.23956600       0.30447800       0.01638700
C       -0.92980000       4.83129000      10.29214000       0.09060200      -0.13771200      -0.15958500
C        1.85958000       1.61041000      10.20797000       0.38250500       0.07511100       0.03879000
C        1.39467000       4.02611000      10.29017000       0.04109500       0.13886500      -0.15368800
C        4.18405000       0.80523000      10.29072000      -0.14364600      -0.00016100      -0.14454700