37
Lattice="7.380000114 0.0 0.0 -3.690000057 6.391267579 0.0 0.0 0.0 24.0" Properties=species:S:1:pos:R:3:forces:R:3 stress="-0.006373822877842857 5.889488011183442e-05 -0.0 5.889488011183442e-05 -0.006305809152898107 -0.0 -0.0 -0.0 0.004256309767268325" free_energy=-336.51554823 energy=-336.51389233 pbc="T T T"
C        0.00000000       0.00000000      13.87500000      -0.15434700      -0.09071900       0.02192800
C       -1.22999000       2.13040000      13.87500000      -0.17160700       0.09907700      -0.05959200
C       -2.46001000       4.26087000      13.87500000      -0.00005300      -0.19813500      -0.05959000
C        2.45998000       0.00000000      13.87500000       0.15590400      -0.09001100       0.02157300
C        1.22999000       2.13040000      13.87500000       0.00139200       0.17902800       0.02192800
C       -0.00004000       4.26087000      13.87500000       0.02933300       0.01685100      -0.01797900
C        4.92002000       0.00000000      13.87500000       0.00007300      -0.03382900      -0.01797900
C        3.69004000       2.13040000      13.87500000       0.17156300       0.09911400      -0.05959000
C        2.46001000       4.26087000      13.87500000      -0.02801500       0.01617500      -0.01796100
C        0.00000000       1.42027000      13.87500000      -0.15598800       0.09005900       0.02190400
C       -1.23002000       3.55073000      13.87500000      -0.02936200      -0.01639200      -0.01798600
C       -2.46001000       5.68113000      13.87500000      -0.00086400      -0.17907300       0.02174700
C        2.45998000       1.42027000      13.87500000       0.15464900       0.09028400       0.02174700
C        1.22995000       3.55073000      13.87500000      -0.00016600       0.19833200      -0.05948900
C       -0.00004000       5.68113000      13.87500000       0.17150300      -0.09901700      -0.05964000
C        4.92002000       1.42027000      13.87500000      -0.00048500       0.03362400      -0.01798600
C        3.69000000       3.55073000      13.87500000       0.02826800      -0.01632000      -0.01794800
C        2.46001000       5.68113000      13.87500000      -0.17184300      -0.09902200      -0.05948900
C        0.00000000       0.00000000      10.12500000      -0.15434700      -0.09071900      -0.02192800
C       -1.22999000       2.13040000      10.12500000      -0.17160700       0.09907700       0.05959200
C       -2.46001000       4.26087000      10.12500000      -0.00005300      -0.19813500       0.05959000
C        2.45998000       0.00000000      10.12500000       0.15590400      -0.09001100      -0.02157300
C        1.22999000       2.13040000      10.12500000       0.00139200       0.17902800      -0.02192800
C       -0.00004000       4.26087000      10.12500000       0.02933300       0.01685100       0.01797900
C        4.92002000       0.00000000      10.12500000       0.00007300      -0.03382900       0.01797900
C        3.69004000       2.13040000      10.12500000       0.17156300       0.09911400       0.05959000
C        2.46001000       4.26087000      10.12500000      -0.02801500       0.01617500       0.01796100
C        0.00000000       1.42027000      10.12500000      -0.15598800       0.09005900      -0.02190400
C       -1.23002000       3.55073000      10.12500000      -0.02936200      -0.01639200       0.01798600
C       -2.46001000       5.68113000      10.12500000      -0.00086400      -0.17907300      -0.02174700
C        2.45998000       1.42027000      10.12500000       0.15464900       0.09028400      -0.02174700
C        1.22995000       3.55073000      10.12500000      -0.00016600       0.19833200       0.05948900
C       -0.00004000       5.68113000      10.12500000       0.17150300      -0.09901700       0.05964000
C        4.92002000       1.42027000      10.12500000      -0.00048500       0.03362400       0.01798600
C        3.69000000       3.55073000      10.12500000       0.02826800      -0.01632000       0.01794800
C        2.46001000       5.68113000      10.12500000      -0.17184300      -0.09902200       0.05948900
Li       1.22995000       0.71016000      12.00000000       0.00008800      -0.00005100      -0.00000000
37
Lattice="7.380000114 0.0 0.0 -3.690000057 6.391267579 0.0 0.0 0.0 24.0" Properties=species:S:1:pos:R:3:forces:R:3 stress="-0.006320926088000997 5.8857431057079126e-05 -0.0 5.8857431057079126e-05 -0.006252962295129254 -0.0 -0.0 -0.0 0.004509877317016459" free_energy=-336.51721416 energy=-336.51555826 pbc="T T T"
C        0.00000000       0.00000000      13.87606000      -0.15431900      -0.09070300       0.01142600
C       -1.22999000       2.13040000      13.87213000      -0.17162000       0.09908500      -0.01497700
C       -2.46001000       4.26087000      13.87213000      -0.00004500      -0.19815000      -0.01500000
C        2.45998000       0.00000000      13.87604000       0.15588200      -0.08999800       0.01118400
C        1.22999000       2.13040000      13.87606000       0.00139200       0.17899500       0.01142600
C       -0.00004000       4.26087000      13.87413000       0.02915900       0.01675500      -0.03175300
C        4.92002000       0.00000000      13.87413000       0.00007000      -0.03363000      -0.03175300
C        3.69004000       2.13040000      13.87213000       0.17158000       0.09911400      -0.01500000
C        2.46001000       4.26087000      13.87413000      -0.02784000       0.01607400      -0.03173500
C        0.00000000       1.42027000      13.87606000      -0.15595100       0.09003900       0.01144600
C       -1.23002000       3.55073000      13.87413000      -0.02919300      -0.01629400      -0.03178600
C       -2.46001000       5.68113000      13.87605000      -0.00087400      -0.17904200       0.01126900
C        2.45998000       1.42027000      13.87605000       0.15461800       0.09027700       0.01126900
C        1.22995000       3.55073000      13.87213000      -0.00015200       0.19835600      -0.01493600
C       -0.00004000       5.68113000      13.87212000       0.17150200      -0.09901700      -0.01508900
C        4.92002000       1.42027000      13.87413000      -0.00048600       0.03342800      -0.03178600
C        3.69000000       3.55073000      13.87413000       0.02809800      -0.01622200      -0.03175500
C        2.46001000       5.68113000      13.87213000      -0.17185700      -0.09904700      -0.01493600
C        0.00000000       0.00000000      10.12394000      -0.15431900      -0.09070300      -0.01142600
C       -1.22999000       2.13040000      10.12787000      -0.17162000       0.09908500       0.01497700
C       -2.46001000       4.26087000      10.12787000      -0.00004500      -0.19815000       0.01500000
C        2.45998000       0.00000000      10.12396000       0.15588200      -0.08999800      -0.01118400
C        1.22999000       2.13040000      10.12394000       0.00139200       0.17899500      -0.01142600
C       -0.00004000       4.26087000      10.12587000       0.02915900       0.01675500       0.03175300
C        4.92002000       0.00000000      10.12587000       0.00007000      -0.03363000       0.03175300
C        3.69004000       2.13040000      10.12787000       0.17158000       0.09911400       0.01500000
C        2.46001000       4.26087000      10.12587000      -0.02784000       0.01607400       0.03173500
C        0.00000000       1.42027000      10.12394000      -0.15595100       0.09003900      -0.01144600
C       -1.23002000       3.55073000      10.12587000      -0.02919300      -0.01629400       0.03178600
C       -2.46001000       5.68113000      10.12395000      -0.00087400      -0.17904200      -0.01126900
C        2.45998000       1.42027000      10.12395000       0.15461800       0.09027700      -0.01126900
C        1.22995000       3.55073000      10.12787000      -0.00015200       0.19835600       0.01493600
C       -0.00004000       5.68113000      10.12788000       0.17150200      -0.09901700       0.01508900
C        4.92002000       1.42027000      10.12587000      -0.00048600       0.03342800       0.03178600
C        3.69000000       3.55073000      10.12587000       0.02809800      -0.01622200       0.03175500
C        2.46001000       5.68113000      10.12787000      -0.17185700      -0.09904700       0.01493600
Li       1.22996000       0.71015000      12.00000000       0.00007300      -0.00004200       0.00000000
37
Lattice="7.380000114 0.0 0.0 -3.690000057 6.391267579 0.0 0.0 0.0 24.0" Properties=species:S:1:pos:R:3:forces:R:3 stress="-0.006319858789940471 5.883246502057559e-05 -0.0 5.883246502057559e-05 -0.006251926204614358 -0.0 -0.0 -0.0 0.004517030086474721" free_energy=-336.51767426 energy=-336.51601837 pbc="T T T"
C        0.00000000       0.00000000      13.87674000      -0.15444800      -0.09077800       0.00466300
C       -1.22999000       2.13040000      13.87026000      -0.17152300       0.09902900       0.00537700
C       -2.46001000       4.26087000      13.87026000      -0.00004200      -0.19803900       0.00532600
C        2.45998000       0.00000000      13.87672000       0.15601300      -0.09007400       0.00449100
C        1.22999000       2.13040000      13.87674000       0.00139200       0.17914500       0.00466300
C       -0.00004000       4.26087000      13.87357000       0.02910000       0.01672300      -0.04929600
C        4.92002000       0.00000000      13.87357000       0.00006800      -0.03356300      -0.04929600
C        3.69004000       2.13040000      13.87026000       0.17148600       0.09905600       0.00532600
C        2.46001000       4.26087000      13.87357000      -0.02778000       0.01603900      -0.04927700
C        0.00000000       1.42027000      13.87674000      -0.15607500       0.09011000       0.00471300
C       -1.23002000       3.55073000      13.87357000      -0.02913700      -0.01626000      -0.04934600
C       -2.46001000       5.68113000      13.87673000      -0.00088000      -0.17919100       0.00452000
C        2.45998000       1.42027000      13.87673000       0.15474400       0.09035800       0.00452000
C        1.22995000       3.55073000      13.87027000      -0.00014300       0.19825100       0.00537000
C       -0.00004000       5.68113000      13.87026000       0.17140000      -0.09895800       0.00521600
C        4.92002000       1.42027000      13.87357000      -0.00048600       0.03336300      -0.04934600
C        3.69000000       3.55073000      13.87357000       0.02804100      -0.01619000      -0.04932100
C        2.46001000       5.68113000      13.87027000      -0.17176200      -0.09900100       0.00537000
C        0.00000000       0.00000000      10.12326000      -0.15444800      -0.09077800      -0.00466300
C       -1.22999000       2.13040000      10.12974000      -0.17152300       0.09902900      -0.00537700
C       -2.46001000       4.26087000      10.12974000      -0.00004200      -0.19803900      -0.00532600
C        2.45998000       0.00000000      10.12328000       0.15601300      -0.09007400      -0.00449100
C        1.22999000       2.13040000      10.12326000       0.00139200       0.17914500      -0.00466300
C       -0.00004000       4.26087000      10.12643000       0.02910000       0.01672300       0.04929600
C        4.92002000       0.00000000      10.12643000       0.00006800      -0.03356300       0.04929600
C        3.69004000       2.13040000      10.12974000       0.17148600       0.09905600      -0.00532600
C        2.46001000       4.26087000      10.12643000      -0.02778000       0.01603900       0.04927700
C        0.00000000       1.42027000      10.12326000      -0.15607500       0.09011000      -0.00471300
C       -1.23002000       3.55073000      10.12643000      -0.02913700      -0.01626000       0.04934600
C       -2.46001000       5.68113000      10.12327000      -0.00088000      -0.17919100      -0.00452000
C        2.45998000       1.42027000      10.12327000       0.15474400       0.09035800      -0.00452000
C        1.22995000       3.55073000      10.12973000      -0.00014300       0.19825100      -0.00537000
C       -0.00004000       5.68113000      10.12974000       0.17140000      -0.09895800      -0.00521600
C        4.92002000       1.42027000      10.12643000      -0.00048600       0.03336300       0.04934600
C        3.69000000       3.55073000      10.12643000       0.02804100      -0.01619000       0.04932100
C        2.46001000       5.68113000      10.12973000      -0.17176200      -0.09900100      -0.00537000
Li       1.22996000       0.71015000      12.00000000       0.00006300      -0.00003700       0.00000000
37
Lattice="7.380000114 0.0 0.0 -3.690000057 6.391267579 0.0 0.0 0.0 24.0" Properties=species:S:1:pos:R:3:forces:R:3 stress="-0.006313492450632069 5.877629143844265e-05 -0.0 5.877629143844265e-05 -0.006245622280397215 -0.0 -0.0 -0.0 0.004537314991133842" free_energy=-336.517409 energy=-336.51575312 pbc="T T T"
C        0.00000000       0.00000000      13.87812000      -0.15496900      -0.09108000      -0.00899000
C       -1.22999000       2.13040000      13.86653000      -0.17110000       0.09878500       0.04600600
C       -2.46001000       4.26087000      13.86653000      -0.00003500      -0.19756000       0.04590000
C        2.45998000       0.00000000      13.87807000       0.15653800      -0.09037700      -0.00901700
C        1.22999000       2.13040000      13.87812000       0.00139300       0.17974700      -0.00899000
C       -0.00004000       4.26087000      13.87244000       0.02911900       0.01673800      -0.08417600
C        4.92002000       0.00000000      13.87244000       0.00006400      -0.03358700      -0.08417600
C        3.69004000       2.13040000      13.86653000       0.17107500       0.09881100       0.04590000
C        2.46001000       4.26087000      13.87245000      -0.02779700       0.01604800      -0.08416000
C        0.00000000       1.42027000      13.87811000      -0.15658500       0.09040400      -0.00888100
C       -1.23002000       3.55073000      13.87244000      -0.02916100      -0.01627300      -0.08425700
C       -2.46001000       5.68113000      13.87809000      -0.00089300      -0.17979200      -0.00909800
C        2.45998000       1.42027000      13.87809000       0.15525800       0.09066900      -0.00909800
C        1.22995000       3.55073000      13.86654000      -0.00013200       0.19777900       0.04590800
C       -0.00004000       5.68113000      13.86652000       0.17097300      -0.09871200       0.04574900
C        4.92002000       1.42027000      13.87244000      -0.00048800       0.03339000      -0.08425700
C        3.69000000       3.55073000      13.87245000       0.02806500      -0.01620300      -0.08424700
C        2.46001000       5.68113000      13.86654000      -0.17134700      -0.09877500       0.04590800
C        0.00000000       0.00000000      10.12188000      -0.15496900      -0.09108000       0.00899000
C       -1.22999000       2.13040000      10.13347000      -0.17110000       0.09878500      -0.04600600
C       -2.46001000       4.26087000      10.13347000      -0.00003500      -0.19756000      -0.04590000
C        2.45998000       0.00000000      10.12193000       0.15653800      -0.09037700       0.00901700
C        1.22999000       2.13040000      10.12188000       0.00139300       0.17974700       0.00899000
C       -0.00004000       4.26087000      10.12756000       0.02911900       0.01673800       0.08417600
C        4.92002000       0.00000000      10.12756000       0.00006400      -0.03358700       0.08417600
C        3.69004000       2.13040000      10.13347000       0.17107500       0.09881100      -0.04590000
C        2.46001000       4.26087000      10.12755000      -0.02779700       0.01604800       0.08416000
C        0.00000000       1.42027000      10.12189000      -0.15658500       0.09040400       0.00888100
C       -1.23002000       3.55073000      10.12756000      -0.02916100      -0.01627300       0.08425700
C       -2.46001000       5.68113000      10.12191000      -0.00089300      -0.17979200       0.00909800
C        2.45998000       1.42027000      10.12191000       0.15525800       0.09066900       0.00909800
C        1.22995000       3.55073000      10.13346000      -0.00013200       0.19777900      -0.04590800
C       -0.00004000       5.68113000      10.13348000       0.17097300      -0.09871200      -0.04574900
C        4.92002000       1.42027000      10.12756000      -0.00048800       0.03339000       0.08425700
C        3.69000000       3.55073000      10.12755000       0.02806500      -0.01620300       0.08424700
C        2.46001000       5.68113000      10.13346000      -0.17134700      -0.09877500      -0.04590800
Li       1.22996000       0.71015000      12.00000000       0.00004400      -0.00002600      -0.00000000
37
Lattice="7.380000114 0.0 0.0 -3.690000057 6.391267579 0.0 0.0 0.0 24.0" Properties=species:S:1:pos:R:3:forces:R:3 stress="-0.006318173582476483 5.881374049319794e-05 -0.0 5.881374049319794e-05 -0.006250259721677747 -0.0 -0.0 -0.0 0.004520556539130845" free_energy=-336.51776053 energy=-336.51610464 pbc="T T T"
C        0.00000000       0.00000000      13.87719000      -0.15465000      -0.09089600       0.00042400
C       -1.22999000       2.13040000      13.86906000      -0.17145000       0.09898700       0.01778000
C       -2.46001000       4.26087000      13.86906000      -0.00003900      -0.19795700       0.01770900
C        2.45998000       0.00000000      13.87715000       0.15621600      -0.09019200       0.00029500
C        1.22999000       2.13040000      13.87719000       0.00139300       0.17937800       0.00042400
C       -0.00004000       4.26087000      13.87321000       0.02910200       0.01672500      -0.06125400
C        4.92002000       0.00000000      13.87321000       0.00006600      -0.03356600      -0.06125400
C        3.69004000       2.13040000      13.86906000       0.17141600       0.09901300       0.01770900
C        2.46001000       4.26087000      13.87321000      -0.02778200       0.01604000      -0.06123500
C        0.00000000       1.42027000      13.87718000      -0.15627300       0.09022500       0.00049300
C       -1.23002000       3.55073000      13.87321000      -0.02914000      -0.01626200      -0.06131300
C       -2.46001000       5.68113000      13.87717000      -0.00088300      -0.17942400       0.00028900
C        2.45998000       1.42027000      13.87717000       0.15494400       0.09047700       0.00028900
C        1.22995000       3.55073000      13.86907000      -0.00013900       0.19817200       0.01774300
C       -0.00004000       5.68113000      13.86906000       0.17132400      -0.09891400       0.01758300
C        4.92002000       1.42027000      13.87321000      -0.00048700       0.03336700      -0.06131300
C        3.69000000       3.55073000      13.87321000       0.02804500      -0.01619200      -0.06129400
C        2.46001000       5.68113000      13.86907000      -0.17169200      -0.09896600       0.01774300
C        0.00000000       0.00000000      10.12281000      -0.15465000      -0.09089600      -0.00042400
C       -1.22999000       2.13040000      10.13094000      -0.17145000       0.09898700      -0.01778000
C       -2.46001000       4.26087000      10.13094000      -0.00003900      -0.19795700      -0.01770900
C        2.45998000       0.00000000      10.12285000       0.15621600      -0.09019200      -0.00029500
C        1.22999000       2.13040000      10.12281000       0.00139300       0.17937800      -0.00042400
C       -0.00004000       4.26087000      10.12679000       0.02910200       0.01672500       0.06125400
C        4.92002000       0.00000000      10.12679000       0.00006600      -0.03356600       0.06125400
C        3.69004000       2.13040000      10.13094000       0.17141600       0.09901300      -0.01770900
C        2.46001000       4.26087000      10.12679000      -0.02778200       0.01604000       0.06123500
C        0.00000000       1.42027000      10.12282000      -0.15627300       0.09022500      -0.00049300
C       -1.23002000       3.55073000      10.12679000      -0.02914000      -0.01626200       0.06131300
C       -2.46001000       5.68113000      10.12283000      -0.00088300      -0.17942400      -0.00028900
C        2.45998000       1.42027000      10.12283000       0.15494400       0.09047700      -0.00028900
C        1.22995000       3.55073000      10.13093000      -0.00013900       0.19817200      -0.01774300
C       -0.00004000       5.68113000      10.13094000       0.17132400      -0.09891400      -0.01758300
C        4.92002000       1.42027000      10.12679000      -0.00048700       0.03336700       0.06131300
C        3.69000000       3.55073000      10.12679000       0.02804500      -0.01619200       0.06129400
C        2.46001000       5.68113000      10.13093000      -0.17169200      -0.09896600      -0.01774300
Li       1.22996000       0.71015000      12.00000000       0.00005800      -0.00003300      -0.00000000
37
Lattice="7.380000114 0.0 0.0 -3.690000057 6.391267579 0.0 0.0 0.0 24.0" Properties=species:S:1:pos:R:3:forces:R:3 stress="-0.0063149716882949045 5.8788774456694406e-05 -0.0 5.8788774456694406e-05 -0.006247095276550924 -0.0 -0.0 -0.0 0.004524831972882075" free_energy=-336.51928815 energy=-336.51763228 pbc="T T T"
C        0.00000000       0.00000000      13.87785000      -0.15468500      -0.09091600      -0.00238400
C       -1.22999000       2.13040000      13.86786000      -0.17129400       0.09889700       0.00737900
C       -2.46001000       4.26087000      13.86786000      -0.00003600      -0.19778600       0.00725300
C        2.45998000       0.00000000      13.87780000       0.15625700      -0.09021500      -0.00246400
C        1.22999000       2.13040000      13.87785000       0.00139300       0.17941900      -0.00238400
C       -0.00004000       4.26087000      13.87069000       0.02901200       0.01667800      -0.05242700
C        4.92002000       0.00000000      13.87069000       0.00006200      -0.03346500      -0.05242700
C        3.69004000       2.13040000      13.86786000       0.17126900       0.09892400       0.00725300
C        2.46001000       4.26087000      13.87070000      -0.02769100       0.01598800      -0.05240500
C        0.00000000       1.42027000      13.87785000      -0.15630200       0.09024100      -0.00230300
C       -1.23002000       3.55073000      13.87069000      -0.02906400      -0.01621300      -0.05243400
C       -2.46001000       5.68113000      13.87782000      -0.00089000      -0.17946700      -0.00246300
C        2.45998000       1.42027000      13.87782000       0.15497700       0.09050400      -0.00246300
C        1.22995000       3.55073000      13.86787000      -0.00013400       0.19799900       0.00731400
C       -0.00004000       5.68113000      13.86785000       0.17117200      -0.09882600       0.00719200
C        4.92002000       1.42027000      13.87069000      -0.00049100       0.03327600      -0.05243400
C        3.69000000       3.55073000      13.87070000       0.02796200      -0.01614400      -0.05243200
C        2.46001000       5.68113000      13.86787000      -0.17153900      -0.09888400       0.00731400
C        0.00000000       0.00000000      10.12215000      -0.15468500      -0.09091600       0.00238400
C       -1.22999000       2.13040000      10.13214000      -0.17129400       0.09889700      -0.00737900
C       -2.46001000       4.26087000      10.13214000      -0.00003600      -0.19778600      -0.00725300
C        2.45998000       0.00000000      10.12220000       0.15625700      -0.09021500       0.00246400
C        1.22999000       2.13040000      10.12215000       0.00139300       0.17941900       0.00238400
C       -0.00004000       4.26087000      10.12931000       0.02901200       0.01667800       0.05242700
C        4.92002000       0.00000000      10.12931000       0.00006200      -0.03346500       0.05242700
C        3.69004000       2.13040000      10.13214000       0.17126900       0.09892400      -0.00725300
C        2.46001000       4.26087000      10.12930000      -0.02769100       0.01598800       0.05240500
C        0.00000000       1.42027000      10.12215000      -0.15630200       0.09024100       0.00230300
C       -1.23002000       3.55073000      10.12931000      -0.02906400      -0.01621300       0.05243400
C       -2.46001000       5.68113000      10.12218000      -0.00089000      -0.17946700       0.00246300
C        2.45998000       1.42027000      10.12218000       0.15497700       0.09050400       0.00246300
C        1.22995000       3.55073000      10.13213000      -0.00013400       0.19799900      -0.00731400
C       -0.00004000       5.68113000      10.13215000       0.17117200      -0.09882600      -0.00719200
C        4.92002000       1.42027000      10.12931000      -0.00049100       0.03327600       0.05243400
C        3.69000000       3.55073000      10.12930000       0.02796200      -0.01614400       0.05243200
C        2.46001000       5.68113000      10.13213000      -0.17153900      -0.09888400      -0.00731400
Li       1.22996000       0.71015000      12.00000000       0.00004200      -0.00002400      -0.00000000
37
Lattice="7.380000114 0.0 0.0 -3.690000057 6.391267579 0.0 0.0 0.0 24.0" Properties=species:S:1:pos:R:3:forces:R:3 stress="-0.006294717991181413 5.870763483805793e-05 -0.0 5.870763483805793e-05 -0.006226928960565195 -0.0 -0.0 -0.0 0.004545491368088748" free_energy=-336.52333939 energy=-336.52168355 pbc="T T T"
C        0.00000000       0.00000000      13.87986000      -0.15562300      -0.09145700      -0.01037100
C       -1.22999000       2.13040000      13.86425000      -0.17067400       0.09853900      -0.02666900
C       -2.46001000       4.26087000      13.86424000      -0.00002900      -0.19709200      -0.02698000
C        2.45998000       0.00000000      13.87976000       0.15719900      -0.09075900      -0.01033200
C        1.22999000       2.13040000      13.87986000       0.00139300       0.18050200      -0.01037100
C       -0.00004000       4.26087000      13.86315000       0.02874800       0.01652800      -0.02997900
C        4.92002000       0.00000000      13.86315000       0.00006000      -0.03316000      -0.02997900
C        3.69004000       2.13040000      13.86424000       0.17067200       0.09857100      -0.02698000
C        2.46001000       4.26087000      13.86316000      -0.02742500       0.01583400      -0.02989900
C        0.00000000       1.42027000      13.87986000      -0.15722300       0.09077300      -0.01024000
C       -1.23002000       3.55073000      13.86314000      -0.02881500      -0.01606600      -0.02985400
C       -2.46001000       5.68113000      13.87980000      -0.00090700      -0.18055000      -0.01030000
C        2.45998000       1.42027000      13.87980000       0.15590700       0.09106000      -0.01030000
C        1.22995000       3.55073000      13.86427000      -0.00012500       0.19730200      -0.02681300
C       -0.00004000       5.68113000      13.86421000       0.17056700      -0.09847700      -0.02683200
C        4.92002000       1.42027000      13.86314000      -0.00049400       0.03298800      -0.02985400
C        3.69000000       3.55073000      13.86315000       0.02770300      -0.01599400      -0.02995000
C        2.46001000       5.68113000      13.86427000      -0.17093100      -0.09854200      -0.02681300
C        0.00000000       0.00000000      10.12014000      -0.15562300      -0.09145700       0.01037100
C       -1.22999000       2.13040000      10.13575000      -0.17067400       0.09853900       0.02666900
C       -2.46001000       4.26087000      10.13576000      -0.00002900      -0.19709200       0.02698000
C        2.45998000       0.00000000      10.12024000       0.15719900      -0.09075900       0.01033200
C        1.22999000       2.13040000      10.12014000       0.00139300       0.18050200       0.01037100
C       -0.00004000       4.26087000      10.13685000       0.02874800       0.01652800       0.02997900
C        4.92002000       0.00000000      10.13685000       0.00006000      -0.03316000       0.02997900
C        3.69004000       2.13040000      10.13576000       0.17067200       0.09857100       0.02698000
C        2.46001000       4.26087000      10.13684000      -0.02742500       0.01583400       0.02989900
C        0.00000000       1.42027000      10.12014000      -0.15722300       0.09077300       0.01024000
C       -1.23002000       3.55073000      10.13686000      -0.02881500      -0.01606600       0.02985400
C       -2.46001000       5.68113000      10.12020000      -0.00090700      -0.18055000       0.01030000
C        2.45998000       1.42027000      10.12020000       0.15590700       0.09106000       0.01030000
C        1.22995000       3.55073000      10.13573000      -0.00012500       0.19730200       0.02681300
C       -0.00004000       5.68113000      10.13579000       0.17056700      -0.09847700       0.02683200
C        4.92002000       1.42027000      10.13686000      -0.00049400       0.03298800       0.02985400
C        3.69000000       3.55073000      10.13685000       0.02770300      -0.01599400       0.02995000
C        2.46001000       5.68113000      10.13573000      -0.17093100      -0.09854200       0.02681300
Li       1.22998000       0.71014000      12.00000000      -0.00000600       0.00000300      -0.00000000
37
Lattice="7.380000114 0.0 0.0 -3.690000057 6.391267579 0.0 0.0 0.0 24.0" Properties=species:S:1:pos:R:3:forces:R:3 stress="-0.006645809121021471 5.852038956428143e-05 -0.0 5.852038956428143e-05 -0.006578232301715534 -0.0 -0.0 -0.0 0.004082177904165309" free_energy=-336.52262994 energy=-336.5209741 pbc="T T T"
C        0.00000000       0.00000000      13.88386000      -0.15992900      -0.09393400      -0.03330800
C       -1.22999000       2.13040000      13.85703000      -0.16806600       0.09703300      -0.07126800