37
Lattice="7.380000114 0.0 0.0 -3.690000057 6.391267579 0.0 0.0 0.0 24.0" Properties=species:S:1:pos:R:3:forces:R:3 stress="-0.006373747979733347 5.894481218484149e-05 3.1207545629416294e-08 5.894481218484149e-05 -0.0063057155302612185 -6.241509125883259e-09 3.1207545629416294e-08 -6.241509125883259e-09 -0.0047550125879355235" free_energy=-335.57325838 energy=-335.57178415 pbc="T T T"
C        0.00000000       0.00000000      13.67500000       0.00113900      -0.32662700       0.16163700
C       -1.22999000       2.13040000      13.67500000      -0.28176800       0.16457000       0.16160600
C       -2.46001000       4.26087000      13.67500000      -0.04143800      -0.02578900      -0.00387100
C        2.45998000       0.00000000      13.67500000       0.03588500      -0.01998400       0.01727300
C        1.22999000       2.13040000      13.67500000       0.28374200       0.16477900       0.16159600
C       -0.00004000       4.26087000      13.67500000       0.00146400       0.03874100       0.01721700
C        4.92002000       0.00000000      13.67500000      -0.03535200      -0.02105100       0.01727400
C        3.69004000       2.13040000      13.67500000      -0.00126000       0.04970900      -0.00391600
C        2.46001000       4.26087000      13.67500000       0.04159400      -0.02660800      -0.00386800
C        0.00000000       1.42027000      13.67500000      -0.00111800       0.00081800       3.77705200
C       -1.23002000       3.55073000      13.67500000       0.00998500       0.15172100       0.01248800
C       -2.46001000       5.68113000      13.67500000       0.13652200      -0.06661300       0.01251700
C        2.45998000       1.42027000      13.67500000       0.12817600      -0.08380700       0.01244700
C        1.22995000       3.55073000      13.67500000      -0.00963600       0.15250100       0.01249000
C       -0.00004000       5.68113000      13.67500000       0.00086500       0.00116500      -0.00948800
C        4.92002000       1.42027000      13.67500000      -0.12880800      -0.08480700       0.01244100
C        3.69000000       3.55073000      13.67500000      -0.00117800      -0.00172500       0.01950300
C        2.46001000       5.68113000      13.67500000      -0.13914500      -0.06683600       0.01251800
C        0.00000000       0.00000000      10.32500000      -0.00116400      -0.26625900      -0.19267100
C       -1.22999000       2.13040000      10.32500000      -0.23218700       0.13478400      -0.19262500
C       -2.46001000       4.26087000      10.32500000      -0.03643600      -0.02224100      -0.00915500
C        2.45998000       0.00000000      10.32500000       0.18606100      -0.10554900       0.03112200
C        1.22999000       2.13040000      10.32500000       0.23197200       0.13563000      -0.19262000
C       -0.00004000       4.26087000      10.32500000       0.00123100       0.21291200       0.03118000
C        4.92002000       0.00000000      10.32500000      -0.18666300      -0.10660100       0.03112500
C        3.69004000       2.13040000      10.32500000      -0.00147700       0.04226100      -0.00910300
C        2.46001000       4.26087000      10.32500000       0.03440100      -0.02245700      -0.00916400
C        1.22999000       0.71013000      10.32500000       0.22763000      -0.13122900      -0.18057300
C        0.00000000       2.84053000      10.32500000       0.00121800       0.26305300      -0.18045700
C       -1.23002000       4.97100000      10.32500000       0.04157800       0.02221500      -0.01353500
C        3.69004000       0.71013000      10.32500000      -0.00082400      -0.04741000      -0.01361800
C        2.46005000       2.84053000      10.32500000       0.17791200       0.10377400       0.02649600
C        1.23002000       4.97100000      10.32500000      -0.04089000       0.02121400      -0.01355000
C        6.15001000       0.71013000      10.32500000      -0.22496700      -0.13144800      -0.18054400
C        4.92002000       2.84053000      10.32500000      -0.17822800       0.10456500       0.02649100
C        3.69000000       4.97100000      10.32500000       0.00114800      -0.20738000       0.02646900
Li       0.00000000       1.42027000      12.00000000       0.00001800       0.00000800      -3.37218400
37
Lattice="7.380000114 0.0 0.0 -3.690000057 6.391267579 0.0 0.0 0.0 24.0" Properties=species:S:1:pos:R:3:forces:R:3 stress="-0.006621498442976157 5.836435183613434e-05 8.738112776236562e-08 5.836435183613434e-05 -0.0065542087330900094 8.738112776236562e-08 8.738112776236562e-08 8.738112776236562e-08 -0.0006670675293378991" free_energy=-335.90398275 energy=-335.90222677 pbc="T T T"
C        0.00000000       0.00000000      13.68280000       0.00109700      -0.11096400       1.01397200
C       -1.22999000       2.13040000      13.68280000      -0.09505100       0.05674200       1.01416500
C       -2.46001000       4.26087000      13.67481000      -0.02627000      -0.01705900      -0.15399400
C        2.45998000       0.00000000      13.67583000       0.03377500      -0.01878300       0.06810900
C        1.22999000       2.13040000      13.68280000       0.09690200       0.05692100       1.01399400
C       -0.00004000       4.26087000      13.67583000       0.00146700       0.03626100       0.06805300
C        4.92002000       0.00000000      13.67583000      -0.03322800      -0.01984700       0.06805900
C        3.69004000       2.13040000      13.67481000      -0.00125700       0.03217800      -0.15405500
C        2.46001000       4.26087000      13.67481000       0.02639300      -0.01785300      -0.15411600
C        0.00000000       1.42027000      13.85722000      -0.00096500       0.00162400      -1.57221200
C       -1.23002000       3.55073000      13.67560000      -0.00269400       0.14397900      -0.02421600
C       -2.46001000       5.68113000      13.67560000       0.12349700      -0.07372500      -0.02422000
C        2.45998000       1.42027000      13.67560000       0.12780700      -0.06901300      -0.02426000
C        1.22995000       3.55073000      13.67560000       0.00299100       0.14466200      -0.02466700
C       -0.00004000       5.68113000      13.67454000       0.00086700       0.00114300       0.02385000
C        4.92002000       1.42027000      13.67560000      -0.12845800      -0.06999900      -0.02427200
C        3.69000000       3.55073000      13.67594000      -0.00117600      -0.00175100       0.04380900
C        2.46001000       5.68113000      13.67560000      -0.12606100      -0.07387900      -0.02463300
C        0.00000000       0.00000000      10.31571000      -0.00116600      -0.40225200      -0.31195600
C       -1.22999000       2.13040000      10.31571000      -0.34993900       0.20274700      -0.31204100
C       -2.46001000       4.26087000      10.32456000      -0.03383400      -0.02075700       0.01715700
C        2.45998000       0.00000000      10.32650000       0.20608600      -0.11713300      -0.02866600
C        1.22999000       2.13040000      10.31571000       0.34972400       0.20360600      -0.31201200
C       -0.00004000       4.26087000      10.32650000       0.00122600       0.23602000      -0.02854200
C        4.92002000       0.00000000      10.32650000      -0.20668600      -0.11817900      -0.02862500
C        3.69004000       2.13040000      10.32456000      -0.00147900       0.03923800       0.01714700
C        2.46001000       4.26087000      10.32456000       0.03179200      -0.02097200       0.01720700
C        1.22999000       0.71013000      10.31629000       0.34354800      -0.19818300      -0.31181900
C        0.00000000       2.84053000      10.31629000       0.00122600       0.39690900      -0.31188700
C       -1.23002000       4.97100000      10.32435000       0.03981600       0.02116900       0.01850300
C        3.69004000       0.71013000      10.32434000      -0.00081800      -0.04539200       0.01848400
C        2.46005000       2.84053000      10.32628000       0.19507600       0.11364600      -0.02959800
C        1.23002000       4.97100000      10.32435000      -0.03911100       0.02016500       0.01855300
C        6.15001000       0.71013000      10.31629000      -0.34088500      -0.19840500      -0.31179800
C        4.92002000       2.84053000      10.32628000      -0.19538100       0.11444100      -0.02962100
C        3.69000000       4.97100000      10.32628000       0.00115500      -0.22721300      -0.02964300
Li       0.00000000       1.42027000      11.83732000       0.00001100      -0.00009200       0.80579200
37
Lattice="7.380000114 0.0 0.0 -3.690000057 6.391267579 0.0 0.0 0.0 24.0" Properties=species:S:1:pos:R:3:forces:R:3 stress="-0.006561567472349426 5.863897823767321e-05 8.113961863648234e-08 5.863897823767321e-05 -0.006493965687006984 6.865660038471585e-08 8.113961863648234e-08 6.865660038471585e-08 -0.0015055768313455595" free_energy=-335.963049 energy=-335.96138421 pbc="T T T"
C        0.00000000       0.00000000      13.68033000       0.00111000      -0.21517700       0.73392700
C       -1.22999000       2.13040000      13.68033000      -0.18529400       0.10886800       0.73402700
C       -2.46001000       4.26087000      13.67487000      -0.02967300      -0.01899300      -0.10637000
C        2.45998000       0.00000000      13.67557000       0.03339800      -0.01854800       0.05382000
C        1.22999000       2.13040000      13.68033000       0.18719200       0.10906100       0.73390300
C       -0.00004000       4.26087000      13.67557000       0.00145800       0.03586600       0.05376300
C        4.92002000       0.00000000      13.67557000      -0.03287200      -0.01961300       0.05378600
C        3.69004000       2.13040000      13.67487000      -0.00126600       0.03611900      -0.10642400
C        2.46001000       4.26087000      13.67487000       0.02980000      -0.01980100      -0.10645800
C        0.00000000       1.42027000      13.79958000      -0.00103600       0.00075700      -0.23606100
C       -1.23002000       3.55073000      13.67541000       0.00294900       0.15131200      -0.01156100
C       -2.46001000       5.68113000      13.67541000       0.13266300      -0.07250400      -0.01154400
C        2.45998000       1.42027000      13.67541000       0.13134700      -0.07753300      -0.01159300
C        1.22995000       3.55073000      13.67541000      -0.00260700       0.15205700      -0.01189700
C       -0.00004000       5.68113000      13.67469000       0.00087300       0.00115800       0.01300300
C        4.92002000       1.42027000      13.67541000      -0.13197200      -0.07852300      -0.01160500
C        3.69000000       3.55073000      13.67564000      -0.00117000      -0.00173400       0.03646400
C        2.46001000       5.68113000      13.67541000      -0.13524900      -0.07270100      -0.01186100
C        0.00000000       0.00000000      10.31865000      -0.00117600      -0.35158900      -0.27341400
C       -1.22999000       2.13040000      10.31865000      -0.30611300       0.17747100      -0.27345700
C       -2.46001000       4.26087000      10.32470000      -0.03510900      -0.02146200       0.00897400
C        2.45998000       0.00000000      10.32603000       0.20068700      -0.11399700      -0.01344000
C        1.22999000       2.13040000      10.31865000       0.30587700       0.17832500      -0.27343400
C       -0.00004000       4.26087000      10.32603000       0.00121700       0.22982000      -0.01333400
C        4.92002000       0.00000000      10.32603000      -0.20131000      -0.11504600      -0.01341000
C        3.69004000       2.13040000      10.32470000      -0.00148900       0.04072300       0.00898400
C        2.46001000       4.26087000      10.32470000       0.03304800      -0.02167800       0.00900500
C        1.22999000       0.71013000      10.31904000       0.30014800      -0.17311900      -0.26862200
C        0.00000000       2.84053000      10.31905000       0.00123300       0.34681900      -0.26861500
C       -1.23002000       4.97100000      10.32455000       0.04092800       0.02182100       0.00892000
C        3.69004000       0.71013000      10.32455000      -0.00081000      -0.04665300       0.00888000
C        2.46005000       2.84053000      10.32587000       0.19040800       0.11096300      -0.01502300
C        1.23002000       4.97100000      10.32455000      -0.04020800       0.02081800       0.00894700
C        6.15001000       0.71013000      10.31904000      -0.29746300      -0.17334000      -0.26859700
C        4.92002000       2.84053000      10.32587000      -0.19069600       0.11175600      -0.01504000
C        3.69000000       4.97100000      10.32587000       0.00116400      -0.22180300      -0.01506200
Li       0.00000000       1.42027000      11.88877000       0.00001400       0.00010000      -0.12958100
37
Lattice="7.380000114 0.0 0.0 -3.690000057 6.391267579 0.0 0.0 0.0 24.0" Properties=species:S:1:pos:R:3:forces:R:3 stress="-0.006640865845793773 5.858280465554026e-05 1.2483018251766519e-08 5.858280465554026e-05 -0.006572864603867274 6.865660038471585e-08 1.2483018251766519e-08 6.865660038471585e-08 -0.0011733974741569267" free_energy=-336.03494617 energy=-336.03328516 pbc="T T T"
C        0.00000000       0.00000000      13.71405000       0.00109900      -0.25962400       0.25583100
C       -1.22999000       2.13040000      13.71406000      -0.22375600       0.13112800       0.25670400
C       -2.46001000       4.26087000      13.67005000      -0.03853000      -0.02407700      -0.06089300
C        2.45998000       0.00000000      13.67806000       0.03439400      -0.01912300      -0.00442800
C        1.22999000       2.13040000      13.71405000       0.22566300       0.13133700       0.25650300
C       -0.00004000       4.26087000      13.67806000       0.00145200       0.03701200      -0.00465300
C        4.92002000       0.00000000      13.67806000      -0.03387300      -0.02018100      -0.00469700
C        3.69004000       2.13040000      13.67005000      -0.00126800       0.04632600      -0.06100300
C        2.46001000       4.26087000      13.67005000       0.03864600      -0.02488200      -0.06129900
C        0.00000000       1.42027000      13.80188000      -0.00104600       0.00078600       0.20261300
C       -1.23002000       3.55073000      13.67493000       0.00789000       0.12779400       0.15428800
C       -2.46001000       5.68113000      13.67493000       0.11478200      -0.05647900       0.15430000
C        2.45998000       1.42027000      13.67493000       0.10852000      -0.07005800       0.15422500
C        1.22995000       3.55073000      13.67492000      -0.00754200       0.12852800       0.15404900
C       -0.00004000       5.68113000      13.67524000       0.00087700       0.00115800      -0.04819200
C        4.92002000       1.42027000      13.67493000      -0.10912900      -0.07104300       0.15422200
C        3.69000000       3.55073000      13.67736000      -0.00116900      -0.00174400      -0.04702800
C        2.46001000       5.68113000      13.67492000      -0.11734200      -0.05666700       0.15406700
C        0.00000000       0.00000000      10.30563000      -0.00118000      -0.35928300      -0.24710100
C       -1.22999000       2.13040000      10.30563000      -0.31275300       0.18125200      -0.24735800
C       -2.46001000       4.26087000      10.32507000      -0.03489000      -0.02133300       0.00455800
C        2.45998000       0.00000000      10.32553000       0.20229300      -0.11492400      -0.03731300
C        1.22999000       2.13040000      10.30563000       0.31251000       0.18210700      -0.24731400
C       -0.00004000       4.26087000      10.32553000       0.00121500       0.23167400      -0.03720500
C        4.92002000       0.00000000      10.32553000      -0.20291900      -0.11597000      -0.03723000
C        3.69004000       2.13040000      10.32507000      -0.00149300       0.04046800       0.00457100
C        2.46001000       4.26087000      10.32507000       0.03282300      -0.02154900       0.00466500
C        1.22999000       0.71013000      10.30628000       0.30608000      -0.17641500      -0.24735000
C        0.00000000       2.84053000      10.30629000       0.00123500       0.35349800      -0.24750400
C       -1.23002000       4.97100000      10.32491000       0.04063900       0.02165200       0.00690700
C        3.69004000       0.71013000      10.32491000      -0.00080800      -0.04631600       0.00687000
C        2.46005000       2.84053000      10.32529000       0.19088200       0.11123900      -0.03644500
C        1.23002000       4.97100000      10.32491000      -0.03991500       0.02064900       0.00701300
C        6.15001000       0.71013000      10.30629000      -0.30339700      -0.17663500      -0.24731600
C        4.92002000       2.84053000      10.32529000      -0.19116800       0.11203600      -0.03651200
C        3.69000000       4.97100000      10.32528000       0.00116400      -0.22235100      -0.03645800
Li       0.00000000       1.42027000      11.87134000       0.00001100       0.00001000       0.06591100
37
Lattice="7.380000114 0.0 0.0 -3.690000057 6.391267579 0.0 0.0 0.0 24.0" Properties=species:S:1:pos:R:3:forces:R:3 stress="-0.006570336792671291 5.845173296389671e-05 -3.744905475529955e-08 5.845173296389671e-05 -0.006501986026233744 5.554943122036099e-07 -3.744905475529955e-08 5.554943122036099e-07 -0.0008745477757005105" free_energy=-336.05414504 energy=-336.05247962 pbc="T T T"
C        0.00000000       0.00000000      13.74191000       0.00107400      -0.31005900      -0.14466300
C       -1.22999000       2.13040000      13.74192000      -0.26749000       0.15645600      -0.14458900
C       -2.46001000       4.26087000      13.66607000      -0.04492200      -0.02775700      -0.02646300
C        2.45998000       0.00000000      13.68012000       0.03641800      -0.02030800      -0.04619600
C        1.22999000       2.13040000      13.74191000       0.26938900       0.15668900      -0.14485000
C       -0.00004000       4.26087000      13.68011000       0.00144600       0.03932800      -0.04655400
C        4.92002000       0.00000000      13.68012000      -0.03589500      -0.02136000      -0.04665700
C        3.69004000       2.13040000      13.66606000      -0.00126200       0.05367200      -0.02659500
C        2.46001000       4.26087000      13.66606000       0.04503000      -0.02855800      -0.02712200
C        0.00000000       1.42027000      13.80379000      -0.00105100       0.00079300       0.57734700
C       -1.23002000       3.55073000      13.67454000       0.01163900       0.09708000       0.29933600
C       -2.46001000       5.68113000      13.67454000       0.09008500      -0.03790900       0.29933300
C        2.45998000       1.42027000      13.67453000       0.08006400      -0.05797500       0.29923800
C        1.22995000       3.55073000      13.67451000      -0.01128400       0.09779600       0.29917200
C       -0.00004000       5.68113000      13.67570000       0.00088100       0.00114500      -0.09206200
C        4.92002000       1.42027000      13.67453000      -0.08065100      -0.05894800       0.29924500
C        3.69000000       3.55073000      13.67877000      -0.00116800      -0.00176500      -0.10972300
C        2.46001000       5.68113000      13.67451000      -0.09260700      -0.03808800       0.29917800
C        0.00000000       0.00000000      10.29487000      -0.00118100      -0.36812600      -0.23663600
C       -1.22999000       2.13040000      10.29487000      -0.32041500       0.18566300      -0.23720000
C       -2.46001000       4.26087000      10.32538000      -0.03482600      -0.02130800       0.00760900
C        2.45998000       0.00000000      10.32511000       0.20161800      -0.11454900      -0.06057300
C        1.22999000       2.13040000      10.29487000       0.32017000       0.18651700      -0.23713900
C       -0.00004000       4.26087000      10.32512000       0.00121300       0.23087600      -0.06045200
C        4.92002000       0.00000000      10.32512000      -0.20224300      -0.11559400      -0.06044700
C        3.69004000       2.13040000      10.32538000      -0.00149500       0.04037800       0.00762200
C        2.46001000       4.26087000      10.32538000       0.03275600      -0.02152600       0.00778000
C        1.22999000       0.71013000      10.29574000       0.31340200      -0.18045100      -0.24367200
C        0.00000000       2.84053000      10.29575000       0.00123200       0.36179700      -0.24391100
C       -1.23002000       4.97100000      10.32520000       0.04047900       0.02154500       0.01183100
C        3.69004000       0.71013000      10.32520000      -0.00080700      -0.04614400       0.01179700
C        2.46005000       2.84053000      10.32480000       0.18946400       0.11041000      -0.05807700
C        1.23002000       4.97100000      10.32521000      -0.03975600       0.02054200       0.01200400
C        6.15001000       0.71013000      10.29575000      -0.31072600      -0.18067300      -0.24362900
C        4.92002000       2.84053000      10.32480000      -0.18975100       0.11120700      -0.05818300
C        3.69000000       4.97100000      10.32480000       0.00116300      -0.22073100      -0.05806400
Li       0.00000000       1.42028000      11.85693000       0.00000900      -0.00006300       0.22196200
37
Lattice="7.380000114 0.0 0.0 -3.690000057 6.391267579 0.0 0.0 0.0 24.0" Properties=species:S:1:pos:R:3:forces:R:3 stress="-0.006429540829809616 5.825200467186844e-05 1.8724527377649774e-08 5.825200467186844e-05 -0.006361152614317314 3.4328300192357923e-07 1.8724527377649774e-08 3.4328300192357923e-07 -0.00022758414725708125" free_energy=-336.10872995 energy=-336.10708049 pbc="T T T"
C        0.00000000       0.00000000      13.76010000       0.00103500      -0.30678800      -0.09766900
C       -1.22999000       2.13040000      13.76011000      -0.26464500       0.15471200      -0.09825100
C       -2.46001000       4.26087000      13.66114000      -0.04490300      -0.02777600       0.13237800
C        2.45998000       0.00000000      13.67970000       0.03390700      -0.01890400       0.09961500
C        1.22999000       2.13040000      13.76008000       0.26650200       0.15496800      -0.09845500
C       -0.00004000       4.26087000      13.67968000       0.00143200       0.03637700       0.09931900
C        4.92002000       0.00000000      13.67968000      -0.03337300      -0.01993300       0.09922800
C        3.69004000       2.13040000      13.66112000      -0.00125600       0.05361400       0.13223400
C        2.46001000       4.26087000      13.66109000       0.04499900      -0.02856400       0.13182000
C        0.00000000       1.42027000      13.83411000      -0.00101600       0.00128000       0.26116300
C       -1.23002000       3.55073000      13.68900000       0.00973300       0.09578800       0.16135900
C       -2.46001000       5.68113000      13.68900000       0.08806100      -0.03900900       0.16130300
C        2.45998000       1.42027000      13.68899000       0.07993200      -0.05572000       0.16140700
C        1.22995000       3.55073000      13.68895000      -0.00937400       0.09647300       0.16094800
C       -0.00004000       5.68113000      13.67156000       0.00087600       0.00107500      -0.12778800
C        4.92002000       1.42027000      13.68899000      -0.08049800      -0.05668300       0.16144600
C        3.69000000       3.55073000      13.67463000      -0.00117300      -0.00179500      -0.16108900
C        2.46001000       5.68113000      13.68896000      -0.09053600      -0.03916400       0.16093000
C        0.00000000       0.00000000      10.27337000      -0.00118100      -0.36592300      -0.16791300
C       -1.22999000       2.13040000      10.27334000      -0.31858400       0.18464800      -0.16834400
C       -2.46001000       4.26087000      10.32604000      -0.03463000      -0.02122500      -0.02549800
C        2.45998000       0.00000000      10.32174000       0.19196300      -0.10900800      -0.07460100
C        1.22999000       2.13040000      10.27334000       0.31834200       0.18550500      -0.16825900
C       -0.00004000       4.26087000      10.32176000       0.00121700       0.21964600      -0.07454500
C        4.92002000       0.00000000      10.32175000      -0.19257400      -0.11004900      -0.07440400
C        3.69004000       2.13040000      10.32604000      -0.00149600       0.04011200      -0.02546900
C        2.46001000       4.26087000      10.32605000       0.03256500      -0.02144700      -0.02522100
C        1.22999000       0.71013000      10.27409000       0.31192800      -0.17915000      -0.17715300
C        0.00000000       2.84053000      10.27408000       0.00122600       0.35975900      -0.17720900
C       -1.23002000       4.97100000      10.32606000       0.04002300       0.02124600      -0.02504000
C        3.69004000       0.71013000      10.32605000      -0.00080700      -0.04565100      -0.02507300
C        2.46005000       2.84053000      10.32148000       0.17978800       0.10480200      -0.07459900
C        1.23002000       4.97100000      10.32607000      -0.03930100       0.02024600      -0.02474700
C        6.15001000       0.71013000      10.27409000      -0.30926600      -0.17937500      -0.17709400
C        4.92002000       2.84053000      10.32147000      -0.18007700       0.10560000      -0.07478000
C        3.69000000       4.97100000      10.32148000       0.00116000      -0.20962900      -0.07441200
Li       0.00000000       1.42028000      11.85482000       0.00000400      -0.00006000       0.29446500
37
Lattice="7.380000114 0.0 0.0 -3.690000057 6.391267579 0.0 0.0 0.0 24.0" Properties=species:S:1:pos:R:3:forces:R:3 stress="-0.0063079499905282855 5.797737827032959e-05 8.113961863648234e-08 5.797737827032959e-05 -0.006240011163693046 -6.865660038471585e-07 8.113961863648234e-08 -6.865660038471585e-07 0.00022451956627627255" free_energy=-336.13333947 energy=-336.13170252 pbc="T T T"
C        0.00000000       0.00000000      13.77793000       0.00098900      -0.30239600      -0.07719700
C       -1.22999000       2.13040000      13.77795000      -0.26079300       0.15235100      -0.07739200
C       -2.46001000       4.26087000      13.65630000      -0.04158900      -0.02588400       0.30609300
C        2.45998000       0.00000000      13.67930000       0.02691200      -0.01487600       0.23803600
C        1.22999000       2.13040000      13.77791000       0.26260000       0.15263400      -0.07753800
C       -0.00004000       4.26087000      13.67925000       0.00140400       0.02827500       0.23780800
C        4.92002000       0.00000000      13.67925000      -0.02636000      -0.01586400       0.23772100
C        3.69004000       2.13040000      13.65627000      -0.00124900       0.04980000       0.30595200
C        2.46001000       4.26087000      13.65622000       0.04166600      -0.02664900       0.30564100
C        0.00000000       1.42027000      13.86385000      -0.00097400       0.00163500      -0.01613000
C       -1.23002000       3.55073000      13.70318000       0.00578000       0.09897700       0.02021500
C       -2.46001000       5.68113000      13.70319000       0.08892200      -0.04426100       0.01999700
C        2.45998000       1.42027000      13.70317000       0.08473300      -0.05369600       0.02016500
C        1.22995000       3.55073000      13.70312000      -0.00540400       0.09962400       0.01955600
C       -0.00004000       5.68113000      13.66750000       0.00086200       0.00103800      -0.17941000
C        4.92002000       1.42027000      13.70317000      -0.08527200      -0.05466100       0.02022500
C        3.69000000       3.55073000      13.67057000      -0.00117700      -0.00178400      -0.20410000
C        2.46001000       5.68113000      13.70313000      -0.09134700      -0.04439200       0.01938500
C        0.00000000       0.00000000      10.25228000      -0.00118300      -0.37181000      -0.09658500
C       -1.22999000       2.13040000      10.25222000      -0.32369800       0.18759000      -0.09572000
C       -2.46001000       4.26087000      10.32668000      -0.03441000      -0.02109500      -0.05036100
C        2.45998000       0.00000000      10.31843000       0.17732200      -0.10055700      -0.09404200
C        1.22999000       2.13040000      10.25223000       0.32346400       0.18845200      -0.09561100
C       -0.00004000       4.26087000      10.31846000       0.00122100       0.20269800      -0.09405900
C        4.92002000       0.00000000      10.31844000      -0.17790900      -0.10159300      -0.09377600
C        3.69004000       2.13040000      10.32669000      -0.00149600       0.03984900      -0.05032200
C        2.46001000       4.26087000      10.32671000       0.03235100      -0.02132000      -0.04998600
C        1.22999000       0.71013000      10.25284000       0.31727000      -0.18214700      -0.10616200
C        0.00000000       2.84053000      10.25283000       0.00122500       0.36587200      -0.10579000
C       -1.23002000       4.97100000      10.32690000       0.03957200       0.02098800      -0.05370500
C        3.69004000       0.71013000      10.32688000      -0.00080800      -0.04513400      -0.05374900
C        2.46005000       2.84053000      10.31823000       0.16510500       0.09632600      -0.09665700
C        1.23002000       4.97100000      10.32692000      -0.03885500       0.01999000      -0.05329900
C        6.15001000       0.71013000      10.25285000      -0.31462700      -0.18238100      -0.10608100
C        4.92002000       2.84053000      10.31821000      -0.16540200       0.09712400      -0.09692400
C        3.69000000       4.97100000      10.31822000       0.00115500      -0.19271200      -0.09629200
Li       0.00000000       1.42028000      11.85275000       0.00000100      -0.00001400       0.37009700
37