49
Lattice="8.52159977 0.0 0.0 -4.260799885 7.379921881 0.0 0.0 0.0 24.0" Properties=species:S:1:pos:R:3:forces:R:3 stress="-0.005494531555206675 3.245584745459294e-06 -0.0 3.245584745459294e-06 -0.005490792891240271 -0.0 -0.0 -0.0 0.004650854283642784" free_energy=-447.95119144 energy=-447.94812973 pbc="T T T"
C        0.00000000       0.00000000      13.87500000      -0.08915300      -0.15441900      -0.05971200
C       -2.13040000       3.68996000      13.87500000      -0.01051600      -0.03853800      -0.02317500
C        4.26080000       0.00000000      13.87500000      -0.02811800      -0.02837200      -0.02317500
C        2.13040000       3.68996000      13.87500000       0.10494600       0.18176100       0.02362200
C        0.00000000       2.46002000      13.87500000      -0.20524800      -0.00053000       0.02491100
C       -2.13040000       6.14998000      13.87500000       0.04322300       0.00964300      -0.02187300
C        4.26080000       2.46002000      13.87500000       0.18287600      -0.00051500      -0.05841100
C        2.13040000       6.14998000      13.87500000       0.04321900      -0.01069800      -0.02187300
C        2.13044000       1.23001000      13.87500000       0.10216400      -0.17800500       0.02489400
C        0.00004000       4.91997000      13.87500000      -0.09189000       0.15812800      -0.05841000
C        6.39124000       1.23001000      13.87500000      -0.01326000       0.04225300      -0.02187300
C        4.26084000       4.91997000      13.87500000      -0.03087300       0.03207500      -0.02187400
C        7.10130000       2.46002000      13.87500000      -0.18034300      -0.00187100      -0.05852700
C       -3.55069000       6.14998000      13.87500000      -0.04068000       0.00830600      -0.02199400
C        2.84050000       2.46002000      13.87500000       0.20780100      -0.00186900       0.02480400
C        0.71010000       6.14998000      13.87500000      -0.04068200      -0.01203300      -0.02199300
C        0.71015000       1.23001000      13.87500000      -0.10410800      -0.18033700       0.02479200
C       -1.42025000       4.91997000      13.87500000       0.02893000       0.02976600      -0.02199300
C        4.97095000       1.23001000      13.87500000       0.01131000       0.03993500      -0.02199400
C        2.84055000       4.91997000      13.87500000       0.08995800       0.15581500      -0.05852500
C        2.84059000       0.00000000      13.87500000       0.08854500      -0.15710700      -0.05852800
C        0.71019000       3.68996000      13.87500000      -0.10551700       0.17903900       0.02482100
C        7.10139000       0.00000000      13.87500000       0.02753200      -0.03108200      -0.02199400
C        4.97099000       3.68996000      13.87500000       0.00992200      -0.04124900      -0.02199300
C        0.00000000       0.00000000      10.12500000      -0.08915300      -0.15441900       0.05971200
C       -2.13040000       3.68996000      10.12500000      -0.01051600      -0.03853800       0.02317500
C        4.26080000       0.00000000      10.12500000      -0.02811800      -0.02837200       0.02317500
C        2.13040000       3.68996000      10.12500000       0.10494600       0.18176100      -0.02362200
C        0.00000000       2.46002000      10.12500000      -0.20524800      -0.00053000      -0.02491100
C       -2.13040000       6.14998000      10.12500000       0.04322300       0.00964300       0.02187300
C        4.26080000       2.46002000      10.12500000       0.18287600      -0.00051500       0.05841100
C        2.13040000       6.14998000      10.12500000       0.04321900      -0.01069800       0.02187300
C        2.13044000       1.23001000      10.12500000       0.10216400      -0.17800500      -0.02489400
C        0.00004000       4.91997000      10.12500000      -0.09189000       0.15812800       0.05841000
C        6.39124000       1.23001000      10.12500000      -0.01326000       0.04225300       0.02187300
C        4.26084000       4.91997000      10.12500000      -0.03087300       0.03207500       0.02187400
C        7.10130000       2.46002000      10.12500000      -0.18034300      -0.00187100       0.05852700
C       -3.55069000       6.14998000      10.12500000      -0.04068000       0.00830600       0.02199400
C        2.84050000       2.46002000      10.12500000       0.20780100      -0.00186900      -0.02480400
C        0.71010000       6.14998000      10.12500000      -0.04068200      -0.01203300       0.02199300
C        0.71015000       1.23001000      10.12500000      -0.10410800      -0.18033700      -0.02479200
C       -1.42025000       4.91997000      10.12500000       0.02893000       0.02976600       0.02199300
C        4.97095000       1.23001000      10.12500000       0.01131000       0.03993500       0.02199400
C        2.84055000       4.91997000      10.12500000       0.08995800       0.15581500       0.05852500
C        2.84059000       0.00000000      10.12500000       0.08854500      -0.15710700       0.05852800
C        0.71019000       3.68996000      10.12500000      -0.10551700       0.17903900      -0.02482100
C        7.10139000       0.00000000      10.12500000       0.02753200      -0.03108200       0.02199400
C        4.97099000       3.68996000      10.12500000       0.00992200      -0.04124900       0.02199300
Li       1.42025000       2.46002000      12.00000000      -0.00007600      -0.00018900       0.00000000
49
Lattice="8.52159977 0.0 0.0 -4.260799885 7.379921881 0.0 0.0 0.0 24.0" Properties=species:S:1:pos:R:3:forces:R:3 stress="-0.005594445633293816 3.226860218081644e-06 -0.0 3.226860218081644e-06 -0.005590719452345662 -0.0 -0.0 -0.0 0.004546539941621897" free_energy=-447.95353285 energy=-447.95046255 pbc="T T T"
C        0.00000000       0.00000000      13.87212000      -0.08915800      -0.15442700      -0.01005100
C       -2.13040000       3.68996000      13.87388000      -0.01056200      -0.03835000      -0.03343000
C        4.26080000       0.00000000      13.87388000      -0.02793100      -0.02831900      -0.03343100
C        2.13040000       3.68996000      13.87614000       0.10490700       0.18168800       0.01245000
C        0.00000000       2.46002000      13.87620000      -0.20515500      -0.00052600       0.01313300
C       -2.13040000       6.14998000      13.87394000       0.04308400       0.00951500      -0.03283700
C        4.26080000       2.46002000      13.87218000       0.18288000      -0.00051800      -0.00947300
C        2.13040000       6.14998000      13.87394000       0.04308400      -0.01057300      -0.03283200
C        2.13044000       1.23001000      13.87620000       0.10212400      -0.17791900       0.01312000
C        0.00004000       4.91997000      13.87218000      -0.09189500       0.15813200      -0.00946700
C        6.39124000       1.23001000      13.87394000      -0.01330100       0.04207000      -0.03283700
C        4.26084000       4.91997000      13.87394000      -0.03069900       0.03202100      -0.03283200
C        7.10130000       2.46002000      13.87218000      -0.18031700      -0.00193800      -0.00986800
C       -3.55069000       6.14998000      13.87394000      -0.04052900       0.00815700      -0.03320300
C        2.84050000       2.46002000      13.87620000       0.20769200      -0.00184700       0.01278000
C        0.71010000       6.14998000      13.87394000      -0.04053100      -0.01192500      -0.03321000
C        0.71015000       1.23001000      13.87620000      -0.10408000      -0.18028800       0.01273400
C       -1.42025000       4.91997000      13.87394000       0.02876200       0.02973300      -0.03320200
C        4.97095000       1.23001000      13.87394000       0.01136600       0.03977200      -0.03320300
C        2.84055000       4.91997000      13.87218000       0.09000700       0.15589500      -0.00985600
C        2.84059000       0.00000000      13.87218000       0.08847400      -0.15711700      -0.00987300
C        0.71019000       3.68996000      13.87620000      -0.10544400       0.17895600       0.01279300
C        7.10139000       0.00000000      13.87394000       0.02732800      -0.03102400      -0.03320200
C        4.97099000       3.68996000      13.87394000       0.00993800      -0.04106400      -0.03321000
C        0.00000000       0.00000000      10.12788000      -0.08915800      -0.15442700       0.01005100
C       -2.13040000       3.68996000      10.12612000      -0.01056200      -0.03835000       0.03343000
C        4.26080000       0.00000000      10.12612000      -0.02793100      -0.02831900       0.03343100
C        2.13040000       3.68996000      10.12386000       0.10490700       0.18168800      -0.01245000
C        0.00000000       2.46002000      10.12380000      -0.20515500      -0.00052600      -0.01313300
C       -2.13040000       6.14998000      10.12606000       0.04308400       0.00951500       0.03283700
C        4.26080000       2.46002000      10.12782000       0.18288000      -0.00051800       0.00947300
C        2.13040000       6.14998000      10.12606000       0.04308400      -0.01057300       0.03283200
C        2.13044000       1.23001000      10.12380000       0.10212400      -0.17791900      -0.01312000
C        0.00004000       4.91997000      10.12782000      -0.09189500       0.15813200       0.00946700
C        6.39124000       1.23001000      10.12606000      -0.01330100       0.04207000       0.03283700
C        4.26084000       4.91997000      10.12606000      -0.03069900       0.03202100       0.03283200
C        7.10130000       2.46002000      10.12782000      -0.18031700      -0.00193800       0.00986800
C       -3.55069000       6.14998000      10.12606000      -0.04052900       0.00815700       0.03320300
C        2.84050000       2.46002000      10.12380000       0.20769200      -0.00184700      -0.01278000
C        0.71010000       6.14998000      10.12606000      -0.04053100      -0.01192500       0.03321000
C        0.71015000       1.23001000      10.12380000      -0.10408000      -0.18028800      -0.01273400
C       -1.42025000       4.91997000      10.12606000       0.02876200       0.02973300       0.03320200
C        4.97095000       1.23001000      10.12606000       0.01136600       0.03977200       0.03320300
C        2.84055000       4.91997000      10.12782000       0.09000700       0.15589500       0.00985600
C        2.84059000       0.00000000      10.12782000       0.08847400      -0.15711700       0.00987300
C        0.71019000       3.68996000      10.12380000      -0.10544400       0.17895600      -0.01279300
C        7.10139000       0.00000000      10.12606000       0.02732800      -0.03102400       0.03320200
C        4.97099000       3.68996000      10.12606000       0.00993800      -0.04106400       0.03321000
Li       1.42025000       2.46001000      12.00000000      -0.00008800      -0.00020900      -0.00000000
49
Lattice="8.52159977 0.0 0.0 -4.260799885 7.379921881 0.0 0.0 0.0 24.0" Properties=species:S:1:pos:R:3:forces:R:3 stress="-0.005593734101253464 3.220618708955761e-06 -0.0 3.220618708955761e-06 -0.005590007920305312 -0.0 -0.0 -0.0 0.004551046311210784" free_energy=-447.95404575 energy=-447.9509715 pbc="T T T"
C        0.00000000       0.00000000      13.87092000      -0.08913900      -0.15439500       0.00138000
C       -2.13040000       3.68996000      13.87342000      -0.01057400      -0.03828900      -0.03795200
C        4.26080000       0.00000000      13.87342000      -0.02787200      -0.02829900      -0.03795300
C        2.13040000       3.68996000      13.87662000       0.10493400       0.18173600       0.00795600
C        0.00000000       2.46002000      13.87670000      -0.20520900      -0.00052300       0.00838800
C       -2.13040000       6.14998000      13.87350000       0.04303900       0.00947600      -0.03764100
C        4.26080000       2.46002000      13.87101000       0.18284200      -0.00051700       0.00165400
C        2.13040000       6.14998000      13.87350000       0.04304000      -0.01053700      -0.03763500
C        2.13044000       1.23001000      13.87670000       0.10215300      -0.17796500       0.00837800
C        0.00004000       4.91997000      13.87101000      -0.09187500       0.15809900       0.00166200
C        6.39124000       1.23001000      13.87350000      -0.01331200       0.04201100      -0.03764100
C        4.26084000       4.91997000      13.87350000      -0.03064500       0.03200200      -0.03763600
C        7.10130000       2.46002000      13.87100000      -0.18026600      -0.00196400       0.00113900
C       -3.55069000       6.14998000      13.87350000      -0.04047800       0.00811000      -0.03811400
C        2.84050000       2.46002000      13.87670000       0.20773900      -0.00183700       0.00792800
C        0.71010000       6.14998000      13.87350000      -0.04048100      -0.01189600      -0.03812800
C        0.71015000       1.23001000      13.87670000      -0.10411600      -0.18034900       0.00786700
C       -1.42025000       4.91997000      13.87350000       0.02870900       0.02972000      -0.03811600
C        4.97095000       1.23001000      13.87350000       0.01138100       0.03972100      -0.03811700
C        2.84055000       4.91997000      13.87100000       0.09000700       0.15589500       0.00115500
C        2.84059000       0.00000000      13.87100000       0.08842700      -0.15708500       0.00113100
C        0.71019000       3.68996000      13.87670000      -0.10545900       0.17900200       0.00793800
C        7.10139000       0.00000000      13.87350000       0.02726300      -0.03100400      -0.03811300
C        4.97099000       3.68996000      13.87350000       0.00993900      -0.04100500      -0.03812700
C        0.00000000       0.00000000      10.12908000      -0.08913900      -0.15439500      -0.00138000
C       -2.13040000       3.68996000      10.12658000      -0.01057400      -0.03828900       0.03795200
C        4.26080000       0.00000000      10.12658000      -0.02787200      -0.02829900       0.03795300
C        2.13040000       3.68996000      10.12338000       0.10493400       0.18173600      -0.00795600
C        0.00000000       2.46002000      10.12330000      -0.20520900      -0.00052300      -0.00838800
C       -2.13040000       6.14998000      10.12650000       0.04303900       0.00947600       0.03764100
C        4.26080000       2.46002000      10.12899000       0.18284200      -0.00051700      -0.00165400
C        2.13040000       6.14998000      10.12650000       0.04304000      -0.01053700       0.03763500
C        2.13044000       1.23001000      10.12330000       0.10215300      -0.17796500      -0.00837800
C        0.00004000       4.91997000      10.12899000      -0.09187500       0.15809900      -0.00166200
C        6.39124000       1.23001000      10.12650000      -0.01331200       0.04201100       0.03764100
C        4.26084000       4.91997000      10.12650000      -0.03064500       0.03200200       0.03763600
C        7.10130000       2.46002000      10.12900000      -0.18026600      -0.00196400      -0.00113900
C       -3.55069000       6.14998000      10.12650000      -0.04047800       0.00811000       0.03811400
C        2.84050000       2.46002000      10.12330000       0.20773900      -0.00183700      -0.00792800
C        0.71010000       6.14998000      10.12650000      -0.04048100      -0.01189600       0.03812800
C        0.71015000       1.23001000      10.12330000      -0.10411600      -0.18034900      -0.00786700
C       -1.42025000       4.91997000      10.12650000       0.02870900       0.02972000       0.03811600
C        4.97095000       1.23001000      10.12650000       0.01138100       0.03972100       0.03811700
C        2.84055000       4.91997000      10.12900000       0.09000700       0.15589500      -0.00115500
C        2.84059000       0.00000000      10.12900000       0.08842700      -0.15708500      -0.00113100
C        0.71019000       3.68996000      10.12330000      -0.10545900       0.17900200      -0.00793800
C        7.10139000       0.00000000      10.12650000       0.02726300      -0.03100400       0.03811300
C        4.97099000       3.68996000      10.12650000       0.00993900      -0.04100500       0.03812700
Li       1.42025000       2.46001000      12.00000000      -0.00009400      -0.00021700       0.00000000
49
Lattice="8.52159977 0.0 0.0 -4.260799885 7.379921881 0.0 0.0 0.0 24.0" Properties=species:S:1:pos:R:3:forces:R:3 stress="-0.005772572062237397 3.214377199829878e-06 -0.0 3.214377199829878e-06 -0.005768864605816623 -0.0 -0.0 -0.0 0.00441880121585157" free_energy=-447.9542708 energy=-447.95118863 pbc="T T T"
C        0.00000000       0.00000000      13.86851000      -0.08903500      -0.15421500       0.03647500
C       -2.13040000       3.68996000      13.87248000      -0.01060400      -0.03817400      -0.02503900
C        4.26080000       0.00000000      13.87248000      -0.02775700      -0.02826700      -0.02504000
C        2.13040000       3.68996000      13.87757000       0.10504800       0.18193300      -0.00132100
C        0.00000000       2.46002000      13.87771000      -0.20543600      -0.00051800      -0.00139400
C       -2.13040000       6.14998000      13.87262000       0.04295800       0.00939700      -0.02529400
C        4.26080000       2.46002000      13.86865000       0.18263500      -0.00051500       0.03608400
C        2.13040000       6.14998000      13.87262000       0.04296200      -0.01046400      -0.02528400
C        2.13044000       1.23001000      13.87770000       0.10227100      -0.17816000      -0.00139800
C        0.00004000       4.91997000      13.86865000      -0.09176900       0.15792000       0.03609600
C        6.39124000       1.23001000      13.87262000      -0.01334100       0.04190200      -0.02529500
C        4.26084000       4.91997000      13.87262000      -0.03054300       0.03197100      -0.02528600
C        7.10130000       2.46002000      13.86864000      -0.18003500      -0.00201000       0.03535300
C       -3.55069000       6.14998000      13.87261000      -0.04038800       0.00801600      -0.02598400
C        2.84050000       2.46002000      13.87769000       0.20795600      -0.00181600      -0.00206300
C        0.71010000       6.14998000      13.87261000      -0.04038800      -0.01183900      -0.02600600
C        0.71015000       1.23001000      13.87769000      -0.10424900      -0.18058000      -0.00215700
C       -1.42025000       4.91997000      13.87261000       0.02861000       0.02970600      -0.02598600
C        4.97095000       1.23001000      13.87261000       0.01141900       0.03962800      -0.02598800
C        2.84055000       4.91997000      13.86864000       0.08994100       0.15578100       0.03537800
C        2.84059000       0.00000000      13.86864000       0.08827100      -0.15690900       0.03534100
C        0.71019000       3.68996000      13.87770000      -0.10554900       0.17919900      -0.00205800
C        7.10139000       0.00000000      13.87261000       0.02713500      -0.03097200      -0.02598200
C        4.97099000       3.68996000      13.87261000       0.00994200      -0.04089600      -0.02600500
C        0.00000000       0.00000000      10.13149000      -0.08903500      -0.15421500      -0.03647500
C       -2.13040000       3.68996000      10.12752000      -0.01060400      -0.03817400       0.02503900
C        4.26080000       0.00000000      10.12752000      -0.02775700      -0.02826700       0.02504000
C        2.13040000       3.68996000      10.12243000       0.10504800       0.18193300       0.00132100
C        0.00000000       2.46002000      10.12229000      -0.20543600      -0.00051800       0.00139400
C       -2.13040000       6.14998000      10.12738000       0.04295800       0.00939700       0.02529400
C        4.26080000       2.46002000      10.13135000       0.18263500      -0.00051500      -0.03608400
C        2.13040000       6.14998000      10.12738000       0.04296200      -0.01046400       0.02528400
C        2.13044000       1.23001000      10.12230000       0.10227100      -0.17816000       0.00139800
C        0.00004000       4.91997000      10.13135000      -0.09176900       0.15792000      -0.03609600
C        6.39124000       1.23001000      10.12738000      -0.01334100       0.04190200       0.02529500
C        4.26084000       4.91997000      10.12738000      -0.03054300       0.03197100       0.02528600
C        7.10130000       2.46002000      10.13136000      -0.18003500      -0.00201000      -0.03535300
C       -3.55069000       6.14998000      10.12739000      -0.04038800       0.00801600       0.02598400
C        2.84050000       2.46002000      10.12231000       0.20795600      -0.00181600       0.00206300
C        0.71010000       6.14998000      10.12739000      -0.04038800      -0.01183900       0.02600600
C        0.71015000       1.23001000      10.12231000      -0.10424900      -0.18058000       0.00215700
C       -1.42025000       4.91997000      10.12739000       0.02861000       0.02970600       0.02598600
C        4.97095000       1.23001000      10.12739000       0.01141900       0.03962800       0.02598800
C        2.84055000       4.91997000      10.13136000       0.08994100       0.15578100      -0.03537800
C        2.84059000       0.00000000      10.13136000       0.08827100      -0.15690900      -0.03534100
C        0.71019000       3.68996000      10.12230000      -0.10554900       0.17919900       0.00205800
C        7.10139000       0.00000000      10.12739000       0.02713500      -0.03097200       0.02598200
C        4.97099000       3.68996000      10.12739000       0.00994200      -0.04089600       0.02600500
Li       1.42024000       2.46000000      12.00000000      -0.00010500      -0.00023300      -0.00000000
49
Lattice="8.52159977 0.0 0.0 -4.260799885 7.379921881 0.0 0.0 0.0 24.0" Properties=species:S:1:pos:R:3:forces:R:3 stress="-0.005639584227292203 3.220618708955761e-06 -0.0 3.220618708955761e-06 -0.005635864287853176 -0.0 -0.0 -0.0 0.004568890785801685" free_energy=-447.95437919 energy=-447.95129971 pbc="T T T"
C        0.00000000       0.00000000      13.86938000      -0.08842900      -0.15316500       0.02751400
C       -2.13040000       3.68996000      13.87282000      -0.00993400      -0.03704400      -0.02270500
C        4.26080000       0.00000000      13.87282000      -0.02711400      -0.02712200      -0.02270600
C        2.13040000       3.68996000      13.87722000       0.10570600       0.18307200       0.00216200
C        0.00000000       2.46002000      13.87735000      -0.20473900       0.00064100       0.00228300
C       -2.13040000       6.14998000      13.87294000       0.04362900       0.00585900      -0.04080300
C        4.26080000       2.46002000      13.86950000       0.18343400       0.00064500       0.02737400
C        2.13040000       6.14998000      13.87294000       0.04363200      -0.01405100      -0.04080800
C        2.13044000       1.23001000      13.87734000       0.10292700      -0.17697600       0.00227500
C        0.00004000       4.91997000      13.86950000      -0.09116400       0.15919300       0.02738400
C        6.39124000       1.23001000      13.87294000      -0.01674000       0.04071400      -0.04080400
C        4.26084000       4.91997000      13.87294000      -0.03398500       0.03075700      -0.04081000
C        7.10130000       2.46002000      13.86949000      -0.17950100      -0.00083300       0.02671400
C       -3.55069000       6.14998000      13.87293000      -0.03564900       0.00209200      -0.03780100
C        2.84050000       2.46002000      13.87734000       0.20860300      -0.00066200       0.00168600
C        0.71010000       6.14998000      13.87293000      -0.03565300      -0.01781000      -0.03783800
C        0.71015000       1.23001000      13.87733000      -0.10355800      -0.17938300       0.00160300
C       -1.42025000       4.91997000      13.87293000       0.02932400       0.03087400      -0.04505200
C        4.97095000       1.23001000      13.87293000       0.01207300       0.04083100      -0.04505300
C        2.84055000       4.91997000      13.86949000       0.09066200       0.15703000       0.02673800
C        2.84059000       0.00000000      13.86949000       0.08902300      -0.15585800       0.02670400
C        0.71019000       3.68996000      13.87734000      -0.10487300       0.18033700       0.00169300
C        7.10139000       0.00000000      13.87293000       0.01963500      -0.02983000      -0.03779900
C        4.97099000       3.68996000      13.87293000       0.00240300      -0.03978000      -0.03783800
C        0.00000000       0.00000000      10.13062000      -0.08842900      -0.15316500      -0.02751400
C       -2.13040000       3.68996000      10.12718000      -0.00993400      -0.03704400       0.02270500
C        4.26080000       0.00000000      10.12718000      -0.02711400      -0.02712200       0.02270600
C        2.13040000       3.68996000      10.12278000       0.10570600       0.18307200      -0.00216200
C        0.00000000       2.46002000      10.12265000      -0.20473900       0.00064100      -0.00228300
C       -2.13040000       6.14998000      10.12706000       0.04362900       0.00585900       0.04080300
C        4.26080000       2.46002000      10.13050000       0.18343400       0.00064500      -0.02737400
C        2.13040000       6.14998000      10.12706000       0.04363200      -0.01405100       0.04080800
C        2.13044000       1.23001000      10.12266000       0.10292700      -0.17697600      -0.00227500
C        0.00004000       4.91997000      10.13050000      -0.09116400       0.15919300      -0.02738400
C        6.39124000       1.23001000      10.12706000      -0.01674000       0.04071400       0.04080400
C        4.26084000       4.91997000      10.12706000      -0.03398500       0.03075700       0.04081000
C        7.10130000       2.46002000      10.13051000      -0.17950100      -0.00083300      -0.02671400
C       -3.55069000       6.14998000      10.12707000      -0.03564900       0.00209200       0.03780100
C        2.84050000       2.46002000      10.12266000       0.20860300      -0.00066200      -0.00168600
C        0.71010000       6.14998000      10.12707000      -0.03565300      -0.01781000       0.03783800
C        0.71015000       1.23001000      10.12267000      -0.10355800      -0.17938300      -0.00160300
C       -1.42025000       4.91997000      10.12707000       0.02932400       0.03087400       0.04505200
C        4.97095000       1.23001000      10.12707000       0.01207300       0.04083100       0.04505300
C        2.84055000       4.91997000      10.13051000       0.09066200       0.15703000      -0.02673800
C        2.84059000       0.00000000      10.13051000       0.08902300      -0.15585800      -0.02670400
C        0.71019000       3.68996000      10.12266000      -0.10487300       0.18033700      -0.00169300
C        7.10139000       0.00000000      10.12707000       0.01963500      -0.02983000       0.03779900
C        4.97099000       3.68996000      10.12707000       0.00240300      -0.03978000       0.03783800
Li       1.42025000       2.46001000      12.00000000       0.00057000       0.00093500      -0.00000000
49
Lattice="8.52159977 0.0 0.0 -4.260799885 7.379921881 0.0 0.0 0.0 24.0" Properties=species:S:1:pos:R:3:forces:R:3 stress="-0.005764483066410253 3.183169654200462e-06 -0.0 3.183169654200462e-06 -0.005760806817535107 -0.0 -0.0 -0.0 0.004452105908547284" free_energy=-447.95554266 energy=-447.95244858 pbc="T T T"
C        0.00000000       0.00000000      13.86871000      -0.08898600      -0.15413000       0.01891400
C       -2.13040000       3.68996000      13.87103000      -0.01062300      -0.03806300      -0.03129100
C        4.26080000       0.00000000      13.87103000      -0.02765100      -0.02822900      -0.03129500
C        2.13040000       3.68996000      13.87809000       0.10499700       0.18184500       0.00301400
C        0.00000000       2.46002000      13.87825000      -0.20532600      -0.00050600       0.00169400
C       -2.13040000       6.14998000      13.87036000       0.04283800       0.00930700      -0.02237300
C        4.26080000       2.46002000      13.86887000       0.18257100      -0.00052400       0.01524100
C        2.13040000       6.14998000      13.87036000       0.04287200      -0.01037400      -0.02008400
C        2.13044000       1.23001000      13.87825000       0.10222700      -0.17805900       0.00169100
C        0.00004000       4.91997000      13.86887000      -0.09174500       0.15785900       0.01525100
C        6.39124000       1.23001000      13.87036000      -0.01335800       0.04175300      -0.02237000
C        4.26084000       4.91997000      13.87036000      -0.03042100       0.03193800      -0.02008500
C        7.10130000       2.46002000      13.86883000      -0.17995500      -0.00199600       0.02087600
C       -3.55069000       6.14998000      13.87048000      -0.04025200       0.00787700      -0.02365100
C        2.84050000       2.46002000      13.87821000       0.20784500      -0.00181000       0.00232700
C        0.71010000       6.14998000      13.87048000      -0.04026900      -0.01179100      -0.01886200
C        0.71015000       1.23001000      13.87821000      -0.10421900      -0.18052700       0.00138700
C       -1.42025000       4.91997000      13.87015000       0.02851300       0.02971400      -0.00235900
C        4.97095000       1.23001000      13.87015000       0.01147400       0.03954900      -0.00236400
C        2.84055000       4.91997000      13.86883000       0.08990500       0.15571900       0.01511600
C        2.84059000       0.00000000      13.86883000       0.08824400      -0.15683300       0.02086600
C        0.71019000       3.68996000      13.87822000      -0.10548800       0.17910500       0.00233000