49
Lattice="8.52159977 0.0 0.0 -4.260799885 7.379921881 0.0 0.0 0.0 24.0" Properties=species:S:1:pos:R:3:forces:R:3 stress="-0.005451053202635773 5.636082740672582e-06 -1.2483018251766519e-08 5.636082740672582e-06 -0.005450135700794268 5.617358213294932e-08 -1.2483018251766519e-08 5.617358213294932e-08 -0.0025549680021894378" free_energy=-447.04251913 energy=-447.04041647 pbc="T T T"
C        0.00000000       0.00000000      13.67500000      -0.15902300      -0.27546100       0.16498800
C       -2.13040000       3.68996000      13.67500000       0.00926100      -0.00966700       0.00051700
C        4.26080000       0.00000000      13.67500000      -0.01298800       0.00317800       0.00051700
C        2.13040000       3.68996000      13.67500000       0.05294600       0.09168200       0.01480900
C        0.00000000       2.46002000      13.67500000      -0.15987300       0.27800000       0.16538200
C       -2.13040000       6.14998000      13.67500000       0.05213200      -0.08909600       0.01518400
C        4.26080000       2.46002000      13.67500000      -0.01380300      -0.00059800       0.00088200
C        2.13040000       6.14998000      13.67500000       0.00846400       0.01226200       0.00088400
C        2.13044000       1.23001000      13.67500000       0.32071400       0.00053100       0.16538200
C        0.00004000       4.91997000      13.67500000       0.00639400      -0.01226300       0.00088600
C        6.39124000       1.23001000      13.67500000      -0.10321200       0.00058800       0.01518700
C        4.26084000       4.91997000      13.67500000       0.00639800       0.01345200       0.00088800
C        7.10130000       2.46002000      13.67500000      -0.15489000       0.03823500       0.01074000
C       -3.55069000       6.14998000      13.67500000       0.04506200      -0.15565800       0.01075500
C        2.84050000       2.46002000      13.67500000       0.11297800       0.11446800       0.01074300
C        0.71010000       6.14998000      13.67500000       0.00104000      -0.00098400       0.01318400
C        0.71015000       1.23001000      13.67500000      -0.00154100      -0.00257100       3.78664100
C       -1.42025000       4.91997000      13.67500000      -0.01903000       0.02784500       0.00411200
C        4.97095000       1.23001000      13.67500000       0.03356000      -0.00252200       0.00411200
C        2.84055000       4.91997000      13.67500000      -0.01902000      -0.03286700       0.00411500
C        2.84059000       0.00000000      13.67500000       0.11047900      -0.11497700       0.01073800
C        0.71019000       3.68996000      13.67500000       0.04256400       0.15511800       0.01074100
C        7.10139000       0.00000000      13.67500000      -0.15741500      -0.03876300       0.01075400
C        4.97099000       3.68996000      13.67500000      -0.00144100       0.00045500       0.01318200
C        0.00000000       0.00000000      10.32500000      -0.14971400      -0.26096700      -0.19881400
C       -2.13040000       3.68996000      10.32500000       0.03956900       0.03072000      -0.00654800
C        4.26080000       0.00000000      10.32500000       0.00831100       0.04874000      -0.00654500
C        2.13040000       3.68996000      10.32500000       0.10168900       0.17442300       0.03371100
C        0.00000000       2.46002000      10.32500000      -0.14878100       0.25663600      -0.19921900
C       -2.13040000       6.14998000      10.32500000       0.10252400      -0.17875800       0.03333700
C        4.26080000       2.46002000      10.32500000       0.00917400      -0.05312900      -0.00691100
C        2.13040000       6.14998000      10.32500000       0.04042800      -0.03505600      -0.00691100
C        2.13044000       1.23001000      10.32500000       0.29896500      -0.00288100      -0.19923500
C        0.00004000       4.91997000      10.32500000      -0.04824300      -0.02091200      -0.00691100
C        6.39124000       1.23001000      10.32500000      -0.20373200      -0.00289900       0.03333200
C        4.26084000       4.91997000      10.32500000      -0.04825300       0.01517900      -0.00691200
C        7.81145000       1.23001000      10.32500000      -0.28734300      -0.00077400      -0.18158800
C       -2.84055000       4.91997000      10.32500000       0.05285500       0.01940600      -0.01291900
C        3.55065000       1.23001000      10.32500000       0.19485300      -0.00072900       0.02841200
C        1.42025000       4.91997000      10.32500000       0.05282600      -0.02084200      -0.01291400
C        1.42030000       0.00000000      10.32500000       0.14335100      -0.24953500      -0.18158000
C       -0.71010000       3.68996000      10.32500000      -0.09774700       0.16804900       0.02841600
C        5.68109000       0.00000000      10.32500000      -0.00931600       0.05512100      -0.01292000
C        3.55069000       3.68996000      10.32500000      -0.04418100       0.03500600      -0.01292000
C        1.42034000       2.45995000      10.32500000       0.14360100       0.25742900      -0.18162100
C       -0.71006000       6.14991000      10.32500000      -0.04394600      -0.02715600      -0.01293300
C        5.68114000       2.45995000      10.32500000      -0.00910300      -0.04728900      -0.01293500
C        3.55074000       6.14991000      10.32500000      -0.09754500      -0.16022200       0.02840800
Li       0.71015000       1.23001000      12.00000000      -0.00000200       0.00005300      -3.36060000
49
Lattice="8.52159977 0.0 0.0 -4.260799885 7.379921881 0.0 0.0 0.0 24.0" Properties=species:S:1:pos:R:3:forces:R:3 stress="-0.005598702342517667 5.604875195043166e-06 6.241509125883259e-08 5.604875195043166e-06 -0.005597291761455218 6.241509125883259e-08 6.241509125883259e-08 6.241509125883259e-08 0.0005064360504741676" free_energy=-447.37110002 energy=-447.368382 pbc="T T T"
C        0.00000000       0.00000000      13.68296000      -0.05115200      -0.08862600       1.00381600
C       -2.13040000       3.68996000      13.67502000       0.00237500      -0.01010300      -0.07879500
C        4.26080000       0.00000000      13.67502000      -0.00991900      -0.00300500      -0.07879500
C        2.13040000       3.68996000      13.67571000       0.04811700       0.08331300       0.08532000
C        0.00000000       2.46002000      13.68298000      -0.05204800       0.09119100       1.00300100
C       -2.13040000       6.14998000      13.67573000       0.04741900      -0.08094900       0.08563100
C        4.26080000       2.46002000      13.67504000      -0.01072200       0.00553700      -0.07862000
C        2.13040000       6.14998000      13.67504000       0.00157600       0.01264700      -0.07860900
C        2.13044000       1.23001000      13.68298000       0.10502000       0.00050400       1.00299200
C        0.00004000       4.91997000      13.67504000       0.01016900      -0.00653100      -0.07861900
C        6.39124000       1.23001000      13.67573000      -0.09379700       0.00057700       0.08563100
C        4.26084000       4.91997000      13.67504000       0.01017800       0.00767900      -0.07860800
C        7.10130000       2.46002000      13.67552000      -0.14896500       0.04430500      -0.01763100
C       -3.55069000       6.14998000      13.67552000       0.03678300      -0.15356900      -0.01765000
C        2.84050000       2.46002000      13.67552000       0.11525600       0.10625000      -0.01765500
C        0.71010000       6.14998000      13.67564000       0.00101700      -0.00100400      -0.01567800
C        0.71015000       1.23001000      13.85768000      -0.00082000      -0.00131700      -1.55987100
C       -1.42025000       4.91997000      13.67520000      -0.01691200       0.02413100       0.02289000
C        4.97095000       1.23001000      13.67520000       0.02927700      -0.00254200       0.02289000
C        2.84055000       4.91997000      13.67520000      -0.01689000      -0.02917100       0.02310100
C        2.84059000       0.00000000      13.67552000       0.11276400      -0.10680600      -0.01763400
C        0.71019000       3.68996000      13.67552000       0.03429900       0.15298600      -0.01765600
C        7.10139000       0.00000000      13.67552000      -0.15147400      -0.04488500      -0.01765100
C        4.97099000       3.68996000      13.67564000      -0.00145400       0.00042900      -0.01567900
C        0.00000000       0.00000000      10.31541000      -0.21911000      -0.38102000      -0.32102300
C       -2.13040000       3.68996000      10.32468000       0.04315700       0.03623700       0.00489500
C        4.26080000       0.00000000      10.32468000       0.01121000       0.05464200       0.00489500
C        2.13040000       3.68996000      10.32663000       0.11077400       0.19024800      -0.01608700
C        0.00000000       2.46002000      10.31539000      -0.21814300       0.37675400      -0.32043600
C       -2.13040000       6.14998000      10.32661000       0.11159900      -0.19452000      -0.01636000
C        4.26080000       2.46002000      10.32467000       0.01208300      -0.05899700       0.00474500
C        2.13040000       6.14998000      10.32467000       0.04402400      -0.04052500       0.00474200
C        2.13044000       1.23001000      10.31539000       0.43755400      -0.00283400      -0.32043300
C        0.00004000       4.91997000      10.32467000      -0.05484700      -0.02128500       0.00474700
C        6.39124000       1.23001000      10.32661000      -0.22200800      -0.00288500      -0.01636300
C        4.26084000       4.91997000      10.32467000      -0.05485300       0.01559600       0.00473800
C        7.81145000       1.23001000      10.31624000      -0.42432500      -0.00088100      -0.32474900
C       -2.84055000       4.91997000      10.32438000       0.06013000       0.02037800       0.00508600
C        3.55065000       1.23001000      10.32637000       0.20942300      -0.00079000      -0.02107800
C        1.42025000       4.91997000      10.32438000       0.06009200      -0.02197100       0.00507700
C        1.42030000       0.00000000      10.31624000       0.21186900      -0.36826600      -0.32474200
C       -0.71010000       3.68996000      10.32637000      -0.10499600       0.18057700      -0.02107400
C        5.68109000       0.00000000      10.32438000      -0.01203000       0.06186600       0.00508600
C        3.55069000       3.68996000      10.32438000      -0.04871600       0.04070100       0.00507600
C        1.42034000       2.45995000      10.31624000       0.21215800       0.37601600      -0.32472800
C       -0.71006000       6.14991000      10.32438000      -0.04846700      -0.03297800       0.00507400
C        5.68114000       2.45995000      10.32438000      -0.01180700      -0.05415800       0.00507200
C        3.55074000       6.14991000      10.32637000      -0.10482300      -0.17290700      -0.02109500
Li       0.71015000       1.23001000      11.83788000      -0.00004500      -0.00003700       0.82281200
49
Lattice="8.52159977 0.0 0.0 -4.260799885 7.379921881 0.0 0.0 0.0 24.0" Properties=species:S:1:pos:R:3:forces:R:3 stress="-0.005594014969164129 5.629841231546699e-06 6.241509125883259e-08 5.629841231546699e-06 -0.005592860289975842 9.986414601413215e-08 6.241509125883259e-08 9.986414601413215e-08 -0.00015451479992036594" free_energy=-447.43079303 energy=-447.42830693 pbc="T T T"
C        0.00000000       0.00000000      13.68043000      -0.10355700      -0.17939400       0.72480900
C       -2.13040000       3.68996000      13.67502000       0.00541800      -0.01021300      -0.05425200
C        4.26080000       0.00000000      13.67502000      -0.01153700      -0.00042400      -0.05425200
C        2.13040000       3.68996000      13.67549000       0.04778700       0.08274200       0.06360000
C        0.00000000       2.46002000      13.68044000      -0.10443200       0.18197800       0.72434600
C       -2.13040000       6.14998000      13.67550000       0.04702700      -0.08023300       0.06394700
C        4.26080000       2.46002000      13.67503000      -0.01234300       0.00300600      -0.05402100
C        2.13040000       6.14998000      13.67503000       0.00462000       0.01280700      -0.05401300
C        2.13044000       1.23001000      13.68044000       0.20983700       0.00053200       0.72434100
C        0.00004000       4.91997000      13.67503000       0.00878900      -0.00920000      -0.05401900
C        6.39124000       1.23001000      13.67550000      -0.09298100       0.00059600       0.06394800
C        4.26084000       4.91997000      13.67503000       0.00879500       0.01039500      -0.05401100
C        7.10130000       2.46002000      13.67535000      -0.15568400       0.04009700      -0.00852100
C       -3.55069000       6.14998000      13.67535000       0.04383900      -0.15726400      -0.00853300
C        2.84050000       2.46002000      13.67535000       0.11497600       0.11422500      -0.00854000
C        0.71010000       6.14998000      13.67543000       0.00103500      -0.00098000      -0.00720100
C        0.71015000       1.23001000      13.79952000      -0.00150800      -0.00251000      -0.22693500
C       -1.42025000       4.91997000      13.67514000      -0.01602400       0.02263700       0.01609000
C        4.97095000       1.23001000      13.67514000       0.02754100      -0.00252000       0.01609100
C        2.84055000       4.91997000      13.67514000      -0.01600600      -0.02764200       0.01624900
C        2.84059000       0.00000000      13.67535000       0.11248200      -0.11473000      -0.00852400
C        0.71019000       3.68996000      13.67535000       0.04134900       0.15673100      -0.00854100
C        7.10139000       0.00000000      13.67535000      -0.15820000      -0.04062100      -0.00853400
C        4.97099000       3.68996000      13.67543000      -0.00144000       0.00045500      -0.00720200
C        0.00000000       0.00000000      10.31846000      -0.19326500      -0.33632600      -0.27707500
C       -2.13040000       3.68996000      10.32478000       0.04222800       0.03431800       0.00061500
C        4.26080000       0.00000000      10.32478000       0.01005600       0.05285800       0.00061600
C        2.13040000       3.68996000      10.32611000       0.10849300       0.18625100      -0.00071600
C        0.00000000       2.46002000      10.31845000      -0.19229900       0.33203300      -0.27676300
C       -2.13040000       6.14998000      10.32610000       0.10932300      -0.19052900      -0.00101500
C        4.26080000       2.46002000      10.32477000       0.01092500      -0.05720600       0.00039300
C        2.13040000       6.14998000      10.32477000       0.04309200      -0.03860400       0.00039200
C        2.13044000       1.23001000      10.31845000       0.38596100      -0.00284400      -0.27676700
C        0.00004000       4.91997000      10.32477000      -0.05268000      -0.02141600       0.00039500
C        6.39124000       1.23001000      10.32610000      -0.21736800      -0.00288100      -0.00101800
C        4.26084000       4.91997000      10.32477000      -0.05268800       0.01572700       0.00038800
C        7.81145000       1.23001000      10.31903000      -0.37304300      -0.00082600      -0.27370400
C       -2.84055000       4.91997000      10.32458000       0.05778900       0.02035200      -0.00124700
C        3.55065000       1.23001000      10.32593000       0.20585400      -0.00074600      -0.00569600
C        1.42025000       4.91997000      10.32458000       0.05775700      -0.02184100      -0.00125100
C        1.42030000       0.00000000      10.31903000       0.18621700      -0.32380100      -0.27369800
C       -0.71010000       3.68996000      10.32593000      -0.10321800       0.17753900      -0.00569200
C        5.68109000       0.00000000      10.32458000      -0.01092400       0.05984800      -0.00124700
C        3.55069000       3.68996000      10.32458000      -0.04747400       0.03876100      -0.00125400
C        1.42034000       2.45995000      10.31903000       0.18650700       0.33167100      -0.27369600
C       -0.71006000       6.14991000      10.32457000      -0.04723000      -0.03094400      -0.00126100
C        5.68114000       2.45995000      10.32457000      -0.01070500      -0.05204900      -0.00126300
C        3.55074000       6.14991000      10.32593000      -0.10303100      -0.16976100      -0.00570900
Li       0.71015000       1.23001000      11.88949000      -0.00005900      -0.00005500      -0.12005000
49
Lattice="8.52159977 0.0 0.0 -4.260799885 7.379921881 0.0 0.0 0.0 24.0" Properties=species:S:1:pos:R:3:forces:R:3 stress="-0.005533984134391384 5.143003519727805e-06 6.615999673436253e-07 5.143003519727805e-06 -0.0055345583532309655 2.078422538919125e-06 6.615999673436253e-07 2.078422538919125e-06 7.492307554710263e-05" free_energy=-447.50116835 energy=-447.49871825 pbc="T T T"
C        0.00000000       0.00000000      13.71371000      -0.12581000      -0.21789100       0.23936700
C       -2.13040000       3.68996000      13.67257000       0.00649700      -0.00320200      -0.01887100
C        4.26080000       0.00000000      13.67257000      -0.00604400       0.00403900      -0.01887100
C        2.13040000       3.68996000      13.67841000       0.04702600       0.08147100       0.00666300
C        0.00000000       2.46002000      13.71371000      -0.12666100       0.22065700       0.23777200
C       -2.13040000       6.14998000      13.67844000       0.04626300      -0.07877700       0.00645500
C        4.26080000       2.46002000      13.67259000      -0.00685400      -0.00127600      -0.01855400
C        2.13040000       6.14998000      13.67259000       0.00570100       0.00597700      -0.01848300
C        2.13044000       1.23001000      13.71371000       0.25440700       0.00064500       0.23776900
C        0.00004000       4.91997000      13.67259000       0.00229600      -0.00656300      -0.01855300
C        6.39124000       1.23001000      13.67844000      -0.09137800       0.00068600       0.00645600
C        4.26084000       4.91997000      13.67259000       0.00230100       0.00793900      -0.01848300
C        7.10130000       2.46002000      13.67500000      -0.13095800       0.03211300       0.18449500
C       -3.55069000       6.14998000      13.67500000       0.03850700      -0.13170900       0.18456000
C        2.84050000       2.46002000      13.67500000       0.09566600       0.09695200       0.18446900
C        0.71010000       6.14998000      13.67515000       0.00106600      -0.00089000      -0.09042200
C        0.71015000       1.23001000      13.80184000      -0.00147700      -0.00242200       0.19899500
C       -1.42025000       4.91997000      13.67588000      -0.01473100       0.02052500      -0.02500700
C        4.97095000       1.23001000      13.67588000       0.02503200      -0.00243600      -0.02500900
C        2.84055000       4.91997000      13.67588000      -0.01470500      -0.02534900      -0.02497300
C        2.84059000       0.00000000      13.67500000       0.09317300      -0.09729000       0.18449200
C        0.71019000       3.68996000      13.67500000       0.03601300       0.13139000       0.18447100
C        7.10139000       0.00000000      13.67500000      -0.13343500      -0.03244400       0.18455800
C        4.97099000       3.68996000      13.67515000      -0.00141100       0.00054600      -0.09042300
C        0.00000000       0.00000000      10.30529000      -0.19653500      -0.34194500      -0.24416500
C       -2.13040000       3.68996000      10.32479000       0.04180400       0.03565400       0.00613200
C        4.26080000       0.00000000      10.32479000       0.01138800       0.05318000       0.00613300
C        2.13040000       3.68996000      10.32619000       0.10874400       0.18672700      -0.05999900
C        0.00000000       2.46002000      10.30529000      -0.19557300       0.33784800      -0.24314400
C       -2.13040000       6.14998000      10.32616000       0.10957400      -0.19081900      -0.06007400
C        4.26080000       2.46002000      10.32477000       0.01226000      -0.05734200       0.00602000
C        2.13040000       6.14998000      10.32477000       0.04266600      -0.03975500       0.00602700
C        2.13044000       1.23001000      10.30529000       0.39259500      -0.00275200      -0.24313600
C        0.00004000       4.91997000      10.32477000      -0.05350000      -0.02030800       0.00602100
C        6.39124000       1.23001000      10.32616000      -0.21778100      -0.00278900      -0.06007900
C        4.26084000       4.91997000      10.32477000      -0.05350800       0.01480300       0.00602400
C        7.81145000       1.23001000      10.30606000      -0.37906800      -0.00064000      -0.24340200
C       -2.84055000       4.91997000      10.32448000       0.05857500       0.02012600       0.00833100
C        3.55065000       1.23001000      10.32577000       0.20558900      -0.00065400      -0.05969300
C        1.42025000       4.91997000      10.32448000       0.05854000      -0.02143200       0.00836700
C        1.42030000       0.00000000      10.30606000       0.18935600      -0.32890200      -0.24340100
C       -0.71010000       3.68996000      10.32577000      -0.10304200       0.17737600      -0.05969200
C        5.68109000       0.00000000      10.32448000      -0.01154800       0.06043800       0.00833300
C        3.55069000       3.68996000      10.32448000      -0.04754800       0.03966600       0.00836900
C        1.42034000       2.45995000      10.30606000       0.18945900       0.33684400      -0.24318700
C       -0.71006000       6.14991000      10.32447000      -0.04730200      -0.03166300       0.00834500
C        5.68114000       2.45995000      10.32447000      -0.01133000      -0.05244900       0.00834800
C        3.55074000       6.14991000      10.32577000      -0.10285200      -0.16940800      -0.05992400
Li       0.71014000       1.23001000      11.87291000      -0.00145000      -0.00449600       0.06057400
49
Lattice="8.52159977 0.0 0.0 -4.260799885 7.379921881 0.0 0.0 0.0 24.0" Properties=species:S:1:pos:R:3:forces:R:3 stress="-0.005522081576488325 5.642324249798465e-06 1.8724527377649774e-08 5.642324249798465e-06 -0.005520976829373044 5.617358213294932e-08 1.8724527377649774e-08 5.617358213294932e-08 0.0002593596702169529" free_energy=-447.51808098 energy=-447.51564386 pbc="T T T"
C        0.00000000       0.00000000      13.73607000      -0.14493500      -0.25105500      -0.08350300
C       -2.13040000       3.68996000      13.67092000       0.00730400       0.00012000      -0.00570900
C        4.26080000       0.00000000      13.67092000      -0.00353600       0.00637800      -0.00570900
C        2.13040000       3.68996000      13.68037000       0.04744600       0.08215900      -0.02815000
C        0.00000000       2.46002000      13.73605000      -0.14573200       0.25358700      -0.08413200
C       -2.13040000       6.14998000      13.68041000       0.04668400      -0.07965300      -0.02872600
C        4.26080000       2.46002000      13.67095000      -0.00434800      -0.00379800      -0.00534200
C        2.13040000       6.14998000      13.67096000       0.00650700       0.00247400      -0.00523100
C        2.13044000       1.23001000      13.73605000       0.29249400       0.00057400      -0.08413300
C        0.00004000       4.91997000      13.67096000      -0.00110600      -0.00567300      -0.00534200
C        6.39124000       1.23001000      13.68041000      -0.09231200       0.00059300      -0.02872500
C        4.26084000       4.91997000      13.67096000      -0.00110200       0.00686500      -0.00523100
C        7.10130000       2.46002000      13.67477000      -0.10657400       0.02757000       0.31874300
C       -3.55069000       6.14998000      13.67477000       0.03011800      -0.10838700       0.31886200
C        2.84050000       2.46002000      13.67477000       0.07957500       0.07792500       0.31870600
C        0.71010000       6.14998000      13.67496000       0.00103800      -0.00098300      -0.14251000
C        0.71015000       1.23001000      13.80340000      -0.00150300      -0.00251400       0.49219000
C       -1.42025000       4.91997000      13.67637000      -0.01432300       0.01966700      -0.04892900
C        4.97095000       1.23001000      13.67637000       0.02412400      -0.00253400      -0.04893100
C        2.84055000       4.91997000      13.67639000      -0.01429000      -0.02467400      -0.04898900
C        2.84059000       0.00000000      13.67477000       0.07708600      -0.07846600       0.31874000
C        0.71019000       3.68996000      13.67477000       0.02762000       0.10791800       0.31870900
C        7.10139000       0.00000000      13.67477000      -0.10900300      -0.02806900       0.31886000
C        4.97099000       3.68996000      13.67496000      -0.00143900       0.00045300      -0.14251100
C        0.00000000       0.00000000      10.29644000      -0.19987100      -0.34776200      -0.23632200
C       -2.13040000       3.68996000      10.32479000       0.04166100       0.03637000       0.01372900
C        4.26080000       0.00000000      10.32479000       0.01211500       0.05339300       0.01373100
C        2.13040000       3.68996000      10.32624000       0.10805000       0.18548500      -0.09586100
C        0.00000000       2.46002000      10.29645000      -0.19891400       0.34349900      -0.23531700
C       -2.13040000       6.14998000      10.32620000       0.10888100      -0.18975900      -0.09579100
C        4.26080000       2.46002000      10.32476000       0.01298800      -0.05773700       0.01369500
C        2.13040000       6.14998000      10.32476000       0.04252300      -0.04065200       0.01370700
C        2.13044000       1.23001000      10.29644000       0.39919300      -0.00284200      -0.23530300
C        0.00004000       4.91997000      10.32476000      -0.05417100      -0.01989500       0.01369400
C        6.39124000       1.23001000      10.32620000      -0.21648200      -0.00288100      -0.09579800
C        4.26084000       4.91997000      10.32476000      -0.05417700       0.01420900       0.01370400
C        7.81145000       1.23001000      10.29735000      -0.38560700      -0.00056500      -0.23908500
C       -2.84055000       4.91997000      10.32441000       0.05911600       0.01993500       0.01858800
C        3.55065000       1.23001000      10.32566000       0.20393100      -0.00074700      -0.09220100
C        1.42025000       4.91997000      10.32441000       0.05907800      -0.02142700       0.01865100
C        1.42030000       0.00000000      10.29736000       0.19272900      -0.33454800      -0.23908700
C       -0.71010000       3.68996000      10.32566000      -0.10225600       0.17587200      -0.09220200
C        5.68109000       0.00000000      10.32441000      -0.01194600       0.06079000       0.01859200
C        3.55069000       3.68996000      10.32441000      -0.04777500       0.04011400       0.01865700
C        1.42034000       2.45995000      10.29735000       0.19253600       0.34212600      -0.23876100
C       -0.71006000       6.14991000      10.32441000      -0.04752600      -0.03229600       0.01862100
C        5.68114000       2.45995000      10.32441000      -0.01172800      -0.05298000       0.01862800
C        3.55074000       6.14991000      10.32566000      -0.10206200      -0.16808200      -0.09256900
Li       0.71014000       1.23001000      11.86177000      -0.00008100      -0.00009800       0.19129100
49
Lattice="8.52159977 0.0 0.0 -4.260799885 7.379921881 0.0 0.0 0.0 24.0" Properties=species:S:1:pos:R:3:forces:R:3 stress="-0.005412811476221487 5.723463868434947e-06 2.4966036503533037e-08 5.723463868434947e-06 -0.005411706729106205 8.738112776236562e-08 2.4966036503533037e-08 8.738112776236562e-08 0.000598211200661155" free_energy=-447.5794168 energy=-447.57706037 pbc="T T T"
C        0.00000000       0.00000000      13.75398000      -0.14331400      -0.24824500      -0.03345200
C       -2.13040000       3.68996000      13.66903000       0.01246200      -0.00303100       0.04468300
C        4.26080000       0.00000000      13.66903000      -0.00884700       0.00927100       0.04468100
C        2.13040000       3.68996000      13.68093000       0.04523900       0.07834000       0.10150900
C        0.00000000       2.46002000      13.75392000      -0.14403900       0.25063000      -0.03186100
C       -2.13040000       6.14998000      13.68095000       0.04449700      -0.07587800       0.10125100
C        4.26080000       2.46002000      13.66908000      -0.00964200      -0.00669000       0.04484400
C        2.13040000       6.14998000      13.66909000       0.01165000       0.00560100       0.04497300
C        2.13044000       1.23001000      13.75391000       0.28908300       0.00056400      -0.03186200
C        0.00004000       4.91997000      13.66908000      -0.00096600      -0.01170200       0.04484500
C        6.39124000       1.23001000      13.68095000      -0.08795300       0.00058800       0.10125200
C        4.26084000       4.91997000      13.66909000      -0.00096600       0.01288400       0.04497200
C        7.10130000       2.46002000      13.69012000      -0.10640300       0.03069300       0.19573100
C       -3.55069000       6.14998000      13.69013000       0.02733300      -0.10983500       0.19618600
C        2.84050000       2.46002000      13.69012000       0.08221900       0.07618200       0.19597200
C        0.71010000       6.14998000      13.66781000       0.00107600      -0.00106300      -0.09308600
C        0.71015000       1.23001000      13.82900000      -0.00118700      -0.00197400       0.27995600
C       -1.42025000       4.91997000      13.67447000      -0.01373300       0.01864200      -0.07665200