53
Lattice="8.869700432 0.0 0.0 -4.434850216 7.681385898 0.0 0.0 0.0 24.0" Properties=species:S:1:pos:R:3:forces:R:3 stress="-0.005342338596681138 4.025773386194702e-06 1.8537282103873276e-06 4.025773386194702e-06 -0.005339735887375644 8.488452411201233e-07 1.8537282103873276e-06 8.488452411201233e-07 -0.0022524482963670023" free_energy=-484.19336609 energy=-484.19055838 pbc="T T T"
C        0.00000000       0.00000000      13.67500000      -0.07595200      -0.31650300       0.19334800
C       -0.68230000       2.36349000      13.67500000      -0.23707100       0.22527300       0.18416000
C       -1.36451000       4.72697000      13.67500000      -0.03623900      -0.03358500       0.01923600
C       -2.04686000       7.09053000      13.67500000       0.04407000      -0.05524200       0.03515300
C        1.70569000       1.77263000      13.67500000       0.31064200       0.09983300       0.18192300
C        1.02347000       4.13612000      13.67500000       0.02372200       0.06927100       0.03425900
C        0.34117000       6.49960000      13.67500000      -0.00739700       0.00313700       0.01898200
C        4.09368000       1.18178000      13.67500000      -0.00624300       0.03584200       0.01794500
C        3.41138000       3.54527000      13.67500000       0.01257400      -0.01144100       0.01446800
C        2.72916000       5.90875000      13.67500000       0.03915400      -0.01253200       0.02015100
C        6.48171000       0.59085000      13.67500000      -0.07311600      -0.01098800       0.03312300
C        5.79936000       2.95441000      13.67500000       0.01246800       0.02232900       0.01447400
C        5.11715000       5.31790000      13.67500000      -0.01729500      -0.01053700       0.01463100
C       -3.41146000       6.69663000      13.67500000       0.10728600      -0.10996400       0.04079600
C        0.34108000       1.37873000      13.67500000       0.00059800       0.00152200       3.81146900
C       -0.34113000       3.74222000      13.67500000       0.01776400       0.15319600       0.04208000
C       -1.02343000       6.10570000      13.67500000       0.02210600       0.01461600       0.03365500
C        2.72907000       0.78788000      13.67500000       0.12887200      -0.09816500       0.04075800
C        2.04686000       3.15137000      13.67500000       0.04342200       0.14339200       0.04317800
C        1.36456000       5.51485000      13.67500000      -0.02549000       0.01179400       0.03364000
C        5.11711000       0.19695000      13.67500000      -0.00039100      -0.02878500       0.03483100
C        4.43489000       2.56044000      13.67500000      -0.01017600      -0.01684500       0.05328200
C        3.75255000       4.92400000      13.67500000      -0.02193900       0.01108400       0.04290400
C        3.07025000       7.28748000      13.67500000      -0.13982500      -0.07010000       0.04087300
C        6.82288000       1.96958000      13.67500000      -0.14628500      -0.03164500       0.04099300
C        6.14058000       4.33307000      13.67500000       0.02234600       0.01142700       0.04505900
C        0.00000000       0.00000000      10.32500000      -0.06460000      -0.27914700      -0.22107400
C       -0.68230000       2.36349000      10.32500000      -0.20895200       0.19929400      -0.20986500
C       -1.36451000       4.72697000      10.32500000      -0.00346000      -0.02572300      -0.02450600
C       -2.04686000       7.09053000      10.32500000       0.16135900      -0.13220100       0.01560800
C        1.70569000       1.77263000      10.32500000       0.27709400       0.07841500      -0.21168700
C        1.02347000       4.13612000      10.32500000       0.03761500       0.19970500       0.01577000
C        0.34117000       6.49960000      10.32500000      -0.00320400       0.00888500      -0.02062300
C        4.09368000       1.18178000      10.32500000      -0.01654300       0.00242400      -0.02579700
C        3.41138000       3.54527000      10.32500000      -0.01651600      -0.03911500      -0.02248000
C        2.72916000       5.90875000      10.32500000       0.01711900       0.01271100      -0.02465800
C        6.48171000       0.59085000      10.32500000      -0.19153200      -0.06795100       0.01354900
C        5.79936000       2.95441000      10.32500000       0.03879400       0.00692400      -0.02250400
C        5.11715000       5.31790000      10.32500000      -0.02410000       0.02747400      -0.02340900
C       -1.70573000       3.34832000      10.32500000      -0.15109000       0.12483500      -0.00353100
C       -2.38803000       5.71180000      10.32500000      -0.00091700       0.02441500      -0.04168800
C        1.36460000       0.39390000      10.32500000       0.20294600      -0.18842900      -0.21455700
C        0.68230000       2.75739000      10.32500000       0.06599400       0.27379000      -0.21466200
C       -0.00004000       5.12095000      10.32500000       0.03583700      -0.03890100      -0.04960400
C       -0.68226000       7.48444000      10.32500000      -0.03769400      -0.00638100      -0.04138600
C        3.07029000       2.16653000      10.32500000       0.18147800       0.06602100      -0.00234100
C        2.38799000       4.53002000      10.32500000      -0.02277100      -0.01686400      -0.04385800
C        1.70578000       6.89351000      10.32500000       0.01148000       0.04763600      -0.03888600
C        5.45828000       1.57568000      10.32500000       0.02423600      -0.00970400      -0.04267000
C        4.77598000       3.93917000      10.32500000      -0.00464400       0.00055600      -0.03836500
C        4.09377000       6.30265000      10.32500000      -0.03460800      -0.19298200      -0.00114900
C        7.84631000       0.98475000      10.32500000      -0.27564300      -0.07872000      -0.21465200
Li       0.34108000       1.37873000      12.00000000       0.01472000       0.00665100      -3.37634700
53
Lattice="8.869700432 0.0 0.0 -4.434850216 7.681385898 0.0 0.0 0.0 24.0" Properties=species:S:1:pos:R:3:forces:R:3 stress="-0.0053968082468227214 -2.4966036503533037e-08 -1.2919923890578342e-06 -2.4966036503533037e-08 -0.005403661423842941 1.472996153708449e-06 -1.2919923890578342e-06 1.472996153708449e-06 0.0005562495348078419" free_energy=-484.53079391 energy=-484.52804223 pbc="T T T"
C        0.00000000       0.00000000      13.68433000      -0.02519200      -0.10857100       1.01830800
C       -0.68230000       2.36349000      13.68388000      -0.08845800       0.08506100       1.01981000
C       -1.36451000       4.72697000      13.67593000      -0.02745200      -0.02261200      -0.05629900
C       -2.04686000       7.09053000      13.67670000       0.04400500      -0.05023600       0.10774800
C        1.70569000       1.77263000      13.68378000       0.10910000       0.04924700       1.02244000
C        1.02347000       4.13612000      13.67665000       0.01985600       0.06064800       0.10985800
C        0.34117000       6.49960000      13.67592000      -0.00731000       0.00282900       0.02875700
C        4.09368000       1.18178000      13.67587000      -0.00050500       0.02232300      -0.05418100
C        3.41138000       3.54527000      13.67570000       0.00959300      -0.00315300      -0.03224800
C        2.72916000       5.90875000      13.67597000       0.02533500      -0.01359600      -0.05718000
C        6.48171000       0.59085000      13.67660000      -0.06758200      -0.01316800       0.10866600
C        5.79936000       2.95441000      13.67570000       0.00662400       0.01503000      -0.03220800
C        5.11715000       5.31790000      13.67571000      -0.00395200      -0.01478300      -0.03573900
C       -3.41146000       6.69663000      13.67697000       0.09543900      -0.11710600       0.00515600
C        0.34108000       1.37873000      13.85888000       0.00420700      -0.00299900      -1.56789400
C       -0.34113000       3.74222000      13.67703000       0.00505400       0.14880700       0.00305200
C       -1.02343000       6.10570000      13.67662000       0.01924100       0.01145400       0.02491600
C        2.72907000       0.78788000      13.67697000       0.13092900      -0.09257700       0.00258900
C        2.04686000       3.15137000      13.67708000       0.04371600       0.13385200      -0.00011700
C        1.36456000       5.51485000      13.67662000      -0.02131500       0.01023100       0.02493200
C        5.11711000       0.19695000      13.67668000       0.00542900      -0.02422600       0.02283800
C        4.43489000       2.56044000      13.67757000      -0.00669900      -0.01727800       0.03196800
C        3.75255000       4.92400000      13.67707000      -0.02399600       0.01448100       0.02710800
C        3.07025000       7.28748000      13.67697000      -0.13395000      -0.07095800       0.00568900
C        6.82288000       1.96958000      13.67698000      -0.13709000      -0.01875700       0.00118000
C        6.14058000       4.33307000      13.67717000       0.02096200       0.01564600       0.02567100
C        0.00000000       0.00000000      10.31433000      -0.09775000      -0.41122000      -0.33278500
C       -0.68230000       2.36349000      10.31488000      -0.31036300       0.30239000      -0.33129000
C       -1.36451000       4.72697000      10.32382000      -0.00203600      -0.02402200      -0.02925600
C       -2.04686000       7.09053000      10.32575000       0.17896000      -0.14451100      -0.05060700
C        1.70569000       1.77263000      10.31479000       0.41420800       0.12442400      -0.33089500
C        1.02347000       4.13612000      10.32576000       0.04023400       0.22125700      -0.05207200
C        0.34117000       6.49960000      10.32401000      -0.00310900       0.00852900      -0.03904400
C        4.09368000       1.18178000      10.32376000      -0.01514400      -0.00001900      -0.02703800
C        3.41138000       3.54527000      10.32392000      -0.01926700      -0.04472200      -0.02608500
C        2.72916000       5.90875000      10.32381000       0.01491300       0.00762800      -0.02574700
C        6.48171000       0.59085000      10.32565000      -0.21106500      -0.07810800      -0.05071500
C        5.79936000       2.95441000      10.32391000       0.04481100       0.00672500      -0.02609700
C        5.11715000       5.31790000      10.32387000      -0.02474600       0.03103000      -0.02525300
C       -1.70573000       3.34832000      10.32483000      -0.16593100       0.13116400      -0.04232800
C       -2.38803000       5.71180000      10.32299000      -0.00789400       0.02037400      -0.01420100
C        1.36460000       0.39390000      10.31465000       0.30453300      -0.28227000      -0.32255000
C        0.68230000       2.75739000      10.31464000       0.10120700       0.39420100      -0.32395000
C       -0.00004000       5.12095000      10.32261000       0.03374200      -0.04091500      -0.01915700
C       -0.68226000       7.48444000      10.32300000      -0.05020400      -0.00109700      -0.01286500
C        3.07029000       2.16653000      10.32489000       0.19739400       0.07438300      -0.04314400
C        2.38799000       4.53002000      10.32288000      -0.01488200      -0.01411900      -0.01280200
C        1.70578000       6.89351000      10.32312000       0.01400000       0.05523700      -0.01500600
C        5.45828000       1.57568000      10.32294000       0.02161500      -0.01415500      -0.01532800
C        4.77598000       3.93917000      10.32315000       0.00060300       0.00012700      -0.02330100
C        4.09377000       6.30265000      10.32494000      -0.03467700      -0.21090000      -0.04541700
C        7.84631000       0.98475000      10.31464000      -0.40380400      -0.11034500      -0.32127500
Li       0.34179000       1.37905000      11.83712000      -0.00133900      -0.00065200       0.80338700
53
Lattice="8.869700432 0.0 0.0 -4.434850216 7.681385898 0.0 0.0 0.0 24.0" Properties=species:S:1:pos:R:3:forces:R:3 stress="-0.005418410109907404 8.756837303614212e-06 2.6401583602486184e-06 8.756837303614212e-06 -0.0054406423654138 9.86158441889555e-07 2.6401583602486184e-06 9.86158441889555e-07 -2.212614985125615e-05" free_energy=-484.58914543 energy=-484.58635922 pbc="T T T"
C        0.00000000       0.00000000      13.68139000      -0.05037200      -0.20939800       0.74057200
C       -0.68230000       2.36349000      13.68109000      -0.16434300       0.15696900       0.74009400
C       -1.36451000       4.72697000      13.67564000      -0.02949700      -0.02525600      -0.03318300
C       -2.04686000       7.09053000      13.67616000       0.03964000      -0.04631800       0.08649300
C        1.70569000       1.77263000      13.68101000       0.20849600       0.07811900       0.74196100
C        1.02347000       4.13612000      13.67613000       0.01926300       0.05937300       0.08686700
C        0.34117000       6.49960000      13.67563000      -0.00790000       0.00253800       0.02539200
C        4.09368000       1.18178000      13.67559000      -0.00248100       0.02448600      -0.03214400
C        3.41138000       3.54527000      13.67548000       0.00876500      -0.00547200      -0.01811300
C        2.72916000       5.90875000      13.67567000       0.02746500      -0.01392500      -0.03354800
C        6.48171000       0.59085000      13.67610000      -0.06742100      -0.01294200       0.08559200
C        5.79936000       2.95441000      13.67548000       0.00793100       0.01555100      -0.01808300
C        5.11715000       5.31790000      13.67548000      -0.01042100      -0.01159300      -0.02022300
C       -3.41146000       6.69663000      13.67635000       0.10499500      -0.11440800       0.01831100
C        0.34108000       1.37873000      13.80101000       0.03461700       0.01420900      -0.25792800
C       -0.34113000       3.74222000      13.67639000       0.01577400       0.15350600       0.01759500
C       -1.02343000       6.10570000      13.67611000       0.02146500       0.00949000       0.02731900
C        2.72907000       0.78788000      13.67635000       0.13013000      -0.09806000       0.01637300
C        2.04686000       3.15137000      13.67643000       0.04522700       0.14194800       0.01683600
C        1.36456000       5.51485000      13.67611000      -0.02190500       0.01325100       0.02733100
C        5.11711000       0.19695000      13.67615000      -0.00241000      -0.02810400       0.02704000
C        4.43489000       2.56044000      13.67676000      -0.00584100      -0.01892200       0.03819100
C        3.75255000       4.92400000      13.67642000      -0.02426100       0.01140700       0.03350100
C        3.07025000       7.28748000      13.67635000      -0.14018700      -0.07241800       0.01869200
C        6.82288000       1.96958000      13.67636000      -0.14518400      -0.02620700       0.01574100
C        6.14058000       4.33307000      13.67649000       0.01942100       0.01184300       0.03446100
C        0.00000000       0.00000000      10.31769000      -0.08625400      -0.36324900      -0.28562800
C       -0.68230000       2.36349000      10.31806000      -0.27799100       0.26844600      -0.28698700
C       -1.36451000       4.72697000      10.32419000      -0.00300800      -0.02498000      -0.02781700
C       -2.04686000       7.09053000      10.32552000       0.17373900      -0.14250000      -0.02855600
C        1.70569000       1.77263000      10.31800000       0.36462900       0.11291700      -0.28616300
C        1.02347000       4.13612000      10.32552000       0.03915500       0.21503600      -0.03065900
C        0.34117000       6.49960000      10.32432000      -0.00370200       0.00825600      -0.03333000
C        4.09368000       1.18178000      10.32415000      -0.01619700       0.00034500      -0.02670300
C        3.41138000       3.54527000      10.32426000      -0.01888300      -0.04335100      -0.02498600
C        2.72916000       5.90875000      10.32418000       0.01511300       0.00738300      -0.02536000
C        6.48171000       0.59085000      10.32545000      -0.20667000      -0.07477300      -0.02927400
C        5.79936000       2.95441000      10.32426000       0.04232100       0.00647100      -0.02500300
C        5.11715000       5.31790000      10.32423000      -0.02445100       0.02909000      -0.02465600
C       -1.70573000       3.34832000      10.32488000      -0.16238100       0.13099800      -0.03013400
C       -2.38803000       5.71180000      10.32362000      -0.00529300       0.02121000      -0.02454800
C        1.36460000       0.39390000      10.31791000       0.26551200      -0.25205600      -0.28236300
C        0.68230000       2.75739000      10.31790000       0.09175900       0.34510200      -0.28295500
C       -0.00004000       5.12095000      10.32336000       0.03236600      -0.03923500      -0.02852900
C       -0.68226000       7.48444000      10.32363000      -0.04469100      -0.00561900      -0.02480200
C        3.07029000       2.16653000      10.32492000       0.19251100       0.07153700      -0.03020100
C        2.38799000       4.53002000      10.32355000      -0.02122800      -0.01595100      -0.02553100
C        1.70578000       6.89351000      10.32371000       0.01343100       0.05056400      -0.02393700
C        5.45828000       1.57568000      10.32359000       0.02375300      -0.01041500      -0.02583000
C        4.77598000       3.93917000      10.32373000      -0.00505800      -0.00005800      -0.02988600
C        4.09377000       6.30265000      10.32496000      -0.03540900      -0.20633400      -0.03139300
C        7.84631000       0.98475000      10.31790000      -0.35302200      -0.09809500      -0.28153700
Li       0.34157000       1.37895000      11.88837000      -0.00101300      -0.00040600      -0.12837700
53
Lattice="8.869700432 0.0 0.0 -4.434850216 7.681385898 0.0 0.0 0.0 24.0" Properties=species:S:1:pos:R:3:forces:R:3 stress="-0.005366187403051139 6.815727965464517e-06 2.1283546119261907e-06 6.815727965464517e-06 -0.005384294021025326 -1.1921282430437023e-06 2.1283546119261907e-06 -1.1921282430437023e-06 0.00020640046528383346" free_energy=-484.66336982 energy=-484.660629 pbc="T T T"
C        0.00000000       0.00000000      13.71554000      -0.06189300      -0.25216900       0.21883400
C       -0.68230000       2.36349000      13.71518000      -0.19371500       0.18705500       0.23310700
C       -1.36451000       4.72697000      13.67420000      -0.03550800      -0.02345300      -0.01056800
C       -2.04686000       7.09053000      13.68019000       0.04888100      -0.04645300       0.01830700
C        1.70569000       1.77263000      13.71518000       0.25172200       0.08643400       0.23386900
C        1.02347000       4.13612000      13.68018000       0.01648800       0.05633200       0.01959200
C        0.34117000       6.49960000      13.67684000      -0.00613700       0.00334300       0.03232000
C        4.09368000       1.18178000      13.67420000       0.00152500       0.02888700      -0.00934000
C        3.41138000       3.54527000      13.67471000       0.01486600      -0.00860700       0.00456200
C        2.72916000       5.90875000      13.67422000       0.02970000      -0.01732800      -0.00901900
C        6.48171000       0.59085000      13.68008000      -0.07540700      -0.01081400       0.02146200
C        5.79936000       2.95441000      13.67471000       0.00737400       0.02279600       0.00461200
C        5.11715000       5.31790000      13.67462000      -0.01664700      -0.01527000       0.00295100
C       -3.41146000       6.69663000      13.67732000       0.08950700      -0.09637500       0.21386400
C        0.34108000       1.37873000      13.80246000       0.03432200       0.01202700       0.19007000
C       -0.34113000       3.74222000      13.67733000       0.01113800       0.12789600       0.21273500
C       -1.02343000       6.10570000      13.67746000       0.02364500       0.01113400      -0.01537700
C        2.72907000       0.78788000      13.67723000       0.10638100      -0.08851400       0.21286300
C        2.04686000       3.15137000      13.67734000       0.02724600       0.11874900       0.21179300
C        1.36456000       5.51485000      13.67746000      -0.01719700       0.01026600      -0.01536500
C        5.11711000       0.19695000      13.67749000      -0.00087400      -0.03031100      -0.01732900
C        4.43489000       2.56044000      13.67867000      -0.00620100      -0.01742500      -0.01080500
C        3.75255000       4.92400000      13.67808000      -0.02595300       0.01299600      -0.01767400
C        3.07025000       7.28748000      13.67734000      -0.12013500      -0.05481900       0.21319800
C        6.82288000       1.96958000      13.67721000      -0.11741000      -0.02494600       0.21234100
C        6.14058000       4.33307000      13.67820000       0.01910700       0.01696200      -0.01900300
C        0.00000000       0.00000000      10.30402000      -0.08806300      -0.36977200      -0.23649900
C       -0.68230000       2.36349000      10.30437000      -0.28546500       0.27071900      -0.25037400
C       -1.36451000       4.72697000      10.32285000      -0.00531300      -0.01942800      -0.01797300
C       -2.04686000       7.09053000      10.32428000       0.17892000      -0.14103300      -0.07969300
C        1.70569000       1.77263000      10.30434000       0.36858800       0.11757000      -0.24968500
C        1.02347000       4.13612000      10.32419000       0.03938600       0.21708500      -0.08247600
C        0.34117000       6.49960000      10.32274000       0.00053200       0.00815600      -0.01670800
C        4.09368000       1.18178000      10.32285000      -0.02018800      -0.00003500      -0.01609500
C        3.41138000       3.54527000      10.32305000      -0.01586600      -0.03869000      -0.02151500
C        2.72916000       5.90875000      10.32295000       0.01295900       0.00370900      -0.01578800
C        6.48171000       0.59085000      10.32417000      -0.21081100      -0.07651100      -0.07986100
C        5.79936000       2.95441000      10.32305000       0.04398900       0.00271500      -0.02140400
C        5.11715000       5.31790000      10.32303000      -0.02075600       0.02464200      -0.01966600
C       -1.70573000       3.34832000      10.32351000      -0.16200700       0.12738300      -0.07878600
C       -2.38803000       5.71180000      10.32237000      -0.00839600       0.02025700      -0.01334600
C        1.36460000       0.39390000      10.30440000       0.26762900      -0.26321400      -0.25053000
C        0.68230000       2.75739000      10.30437000       0.09518600       0.35222300      -0.24730600
C       -0.00004000       5.12095000      10.32190000       0.03221500      -0.03950500      -0.02484200
C       -0.68226000       7.48444000      10.32237000      -0.04941000      -0.00136800      -0.01854700
C        3.07029000       2.16653000      10.32355000       0.19106700       0.07195300      -0.07875900
C        2.38799000       4.53002000      10.32224000      -0.01586500      -0.01351600      -0.01009900
C        1.70578000       6.89351000      10.32250000       0.01431200       0.05409900      -0.01983100
C        5.45828000       1.57568000      10.32227000       0.02109200      -0.01454800      -0.01226100
C        4.77598000       3.93917000      10.32225000      -0.00051600       0.00035800      -0.01017100
C        4.09377000       6.30265000      10.32354000      -0.03471500      -0.20518000      -0.07881900
C        7.84631000       0.98475000      10.30444000      -0.35073400      -0.09592700      -0.25056300
Li       0.34158000       1.37896000      11.87096000      -0.00259700      -0.00053500       0.06959600
53
Lattice="8.869700432 0.0 0.0 -4.434850216 7.681385898 0.0 0.0 0.0 24.0" Properties=species:S:1:pos:R:3:forces:R:3 stress="-0.005324132114560938 5.792120468819664e-06 4.381539406370047e-06 5.792120468819664e-06 -0.0053490919095553445 3.1145130538157455e-06 4.381539406370047e-06 3.1145130538157455e-06 0.0004155721606195591" free_energy=-484.68097702 energy=-484.67826771 pbc="T T T"
C        0.00000000       0.00000000      13.74183000      -0.07235000      -0.29477500      -0.16571900
C       -0.68230000       2.36349000      13.74143000      -0.22426800       0.20090800      -0.16956600
C       -1.36451000       4.72697000      13.67310000      -0.03850200      -0.02252000       0.00932400
C       -2.04686000       7.09053000      13.68330000       0.04965100      -0.04628300      -0.02836600
C        1.70569000       1.77263000      13.74150000       0.27689000       0.09262000      -0.16759900
C        1.02347000       4.13612000      13.68329000       0.01778200       0.05536200      -0.02857300
C        0.34117000       6.49960000      13.67778000      -0.00280700       0.00355400       0.03693400
C        4.09368000       1.18178000      13.67313000       0.00453400       0.03161800       0.01069000
C        3.41138000       3.54527000      13.67412000       0.01913500      -0.00965600       0.02276000
C        2.72916000       5.90875000      13.67310000       0.03095700      -0.02022000       0.01091300
C        6.48171000       0.59085000      13.68315000      -0.07561200      -0.00953700      -0.02561200
C        5.79936000       2.95441000      13.67412000       0.00749200       0.02737000       0.02282200
C        5.11715000       5.31790000      13.67395000      -0.01847200      -0.01669600       0.02494900
C       -3.41146000       6.69663000      13.67806000       0.07342500      -0.07331800       0.36613300
C        0.34108000       1.37873000      13.80358000       0.03329700       0.01268200       0.54157100
C       -0.34113000       3.74222000      13.67806000       0.00929300       0.09977700       0.36499000
C       -1.02343000       6.10570000      13.67850000       0.02357600       0.01002600      -0.04758100
C        2.72907000       0.78788000      13.67791000       0.08408700      -0.07150400       0.36599400
C        2.04686000       3.15137000      13.67804000       0.01693500       0.09285600       0.36513500
C        1.36456000       5.51485000      13.67850000      -0.01490200       0.01189200      -0.04758900
C        5.11711000       0.19695000      13.67853000      -0.00114700      -0.02850000      -0.04960700
C        4.43489000       2.56044000      13.68014000      -0.00532200      -0.01593800      -0.04804600
C        3.75255000       4.92400000      13.67936000      -0.02449800       0.01404300      -0.05533600
C        3.07025000       7.28748000      13.67810000      -0.09367700      -0.04285400       0.36471000
C        6.82288000       1.96958000      13.67786000      -0.08891800      -0.02035800       0.36551800
C        6.14058000       4.33307000      13.67952000       0.02209900       0.02128900      -0.05964700
C        0.00000000       0.00000000      10.29349000      -0.08932500      -0.37685800      -0.21974900
C       -0.68230000       2.36349000      10.29382000      -0.29041600       0.27660400      -0.22790800
C       -1.36451000       4.72697000      10.32181000      -0.00502100      -0.01839900      -0.00975000
C       -2.04686000       7.09053000      10.32333000       0.17924600      -0.14015100      -0.11872700
C        1.70569000       1.77263000      10.29381000       0.37672500       0.12026000      -0.22891600
C        1.02347000       4.13612000      10.32316000       0.03744900       0.21366800      -0.11966700
C        0.34117000       6.49960000      10.32153000       0.00085500       0.00911400      -0.00328900
C        4.09368000       1.18178000      10.32185000      -0.01855000      -0.00012900      -0.00767100
C        3.41138000       3.54527000      10.32212000      -0.01523400      -0.03813400      -0.01858700
C        2.72916000       5.90875000      10.32201000       0.01326600       0.00352500      -0.00801500
C        6.48171000       0.59085000      10.32319000      -0.21491900      -0.07264200      -0.11527700
C        5.79936000       2.95441000      10.32212000       0.04449500       0.00413000      -0.01838300
C        5.11715000       5.31790000      10.32211000      -0.01997300       0.02502400      -0.01681500
C       -1.70573000       3.34832000      10.32245000      -0.16146100       0.12061900      -0.11169600
C       -2.38803000       5.71180000      10.32140000      -0.00765800       0.02032400      -0.00431600
C        1.36460000       0.39390000      10.29400000       0.27009900      -0.26427900      -0.22583100
C        0.68230000       2.75739000      10.29395000       0.09732400       0.35894900      -0.22839300
C       -0.00004000       5.12095000      10.32078000       0.03296200      -0.03919100      -0.02160800
C       -0.68226000       7.48444000      10.32140000      -0.04959700      -0.00097000      -0.01468000
C        3.07029000       2.16653000      10.32249000       0.18691400       0.07670500      -0.11304400
C        2.38799000       4.53002000      10.32124000      -0.01453400      -0.01343000      -0.00068600
C        1.70578000       6.89351000      10.32156000       0.01468300       0.05525900      -0.01626800
C        5.45828000       1.57568000      10.32126000       0.02070500      -0.01393300      -0.00127700
C        4.77598000       3.93917000      10.32111000       0.00035000       0.00014200       0.00552200
C        4.09377000       6.30265000      10.32244000      -0.03762900      -0.20216700      -0.11271200
C        7.84631000       0.98475000      10.29407000      -0.35748700      -0.10070300      -0.22636000
Li       0.34158000       1.37896000      11.85754000      -0.00194900      -0.00517400       0.20490300
53