53
Lattice="8.869700432 0.0 0.0 -4.434850216 7.681385898 0.0 0.0 0.0 24.0" Properties=species:S:1:pos:R:3:forces:R:3 stress="-0.0053532425131240565 8.738112776236562e-08 -0.0 8.738112776236562e-08 -0.0053444981588386935 -0.0 -0.0 -0.0 0.004468377522838461" free_energy=-485.1191259 energy=-485.11840019 pbc="T T T"
C        0.00000000       0.00000000      13.87500000      -0.03394200      -0.18328200      -0.02748100
C       -0.68230000       2.36349000      13.87500000      -0.18789600      -0.05454700       0.05247500
C       -1.36451000       4.72697000      13.87500000      -0.14407100       0.12317800      -0.03336700
C       -2.04686000       7.09053000      13.87500000      -0.00409800       0.01404600       0.00379600
C        1.70569000       1.77263000      13.87500000       0.13948200      -0.13312400       0.05062400
C        1.02347000       4.13612000      13.87500000       0.04555700       0.19231200       0.05103200
C        0.34117000       6.49960000      13.87500000       0.01217400      -0.01986300       0.00185700
C        4.09368000       1.18178000      13.87500000      -0.02828500      -0.00944300       0.00254100
C        3.41138000       3.54527000      13.87500000       0.17477000       0.06351000      -0.03384300
C        2.72916000       5.90875000      13.87500000      -0.01200700      -0.00671100       0.00326900
C        6.48171000       0.59085000      13.87500000       0.00751100       0.02853700       0.00103000
C        5.79936000       2.95441000      13.87500000       0.02386700      -0.00608700       0.00744100
C        5.11715000       5.31790000      13.87500000       0.00196200      -0.00104500      -0.00329400
C       -3.41146000       6.69663000      13.87500000      -0.01217400       0.01986300       0.00185700
C        0.34108000       1.37873000      13.87500000      -0.04555700      -0.19231200       0.05103200
C       -0.34113000       3.74222000      13.87500000      -0.13948200       0.13312400       0.05062400
C       -1.02343000       6.10570000      13.87500000       0.00409800      -0.01404600       0.00379600
C        2.72907000       0.78788000      13.87500000       0.14407100      -0.12317800      -0.03336700
C        2.04686000       3.15137000      13.87500000       0.18789600       0.05454700       0.05247500
C        1.36456000       5.51485000      13.87500000       0.03394200       0.18328200      -0.02748100
C        5.11711000       0.19695000      13.87500000      -0.00196200       0.00104500      -0.00329400
C        4.43489000       2.56044000      13.87500000      -0.02386700       0.00608700       0.00744100
C        3.75255000       4.92400000      13.87500000      -0.00751100      -0.02853700       0.00103000
C        3.07025000       7.28748000      13.87500000       0.01200700       0.00671100       0.00326900
C        6.82288000       1.96958000      13.87500000      -0.17477000      -0.06351000      -0.03384300
C        6.14058000       4.33307000      13.87500000       0.02828500       0.00944300       0.00254100
C        0.00000000       0.00000000      10.12500000      -0.03394200      -0.18328200       0.02748100
C       -0.68230000       2.36349000      10.12500000      -0.18789600      -0.05454700      -0.05247500
C       -1.36451000       4.72697000      10.12500000      -0.14407100       0.12317800       0.03336700
C       -2.04686000       7.09053000      10.12500000      -0.00409800       0.01404600      -0.00379600
C        1.70569000       1.77263000      10.12500000       0.13948200      -0.13312400      -0.05062400
C        1.02347000       4.13612000      10.12500000       0.04555700       0.19231200      -0.05103200
C        0.34117000       6.49960000      10.12500000       0.01217400      -0.01986300      -0.00185700
C        4.09368000       1.18178000      10.12500000      -0.02828500      -0.00944300      -0.00254100
C        3.41138000       3.54527000      10.12500000       0.17477000       0.06351000       0.03384300
C        2.72916000       5.90875000      10.12500000      -0.01200700      -0.00671100      -0.00326900
C        6.48171000       0.59085000      10.12500000       0.00751100       0.02853700      -0.00103000
C        5.79936000       2.95441000      10.12500000       0.02386700      -0.00608700      -0.00744100
C        5.11715000       5.31790000      10.12500000       0.00196200      -0.00104500       0.00329400
C       -3.41146000       6.69663000      10.12500000      -0.01217400       0.01986300      -0.00185700
C        0.34108000       1.37873000      10.12500000      -0.04555700      -0.19231200      -0.05103200
C       -0.34113000       3.74222000      10.12500000      -0.13948200       0.13312400      -0.05062400
C       -1.02343000       6.10570000      10.12500000       0.00409800      -0.01404600      -0.00379600
C        2.72907000       0.78788000      10.12500000       0.14407100      -0.12317800       0.03336700
C        2.04686000       3.15137000      10.12500000       0.18789600       0.05454700      -0.05247500
C        1.36456000       5.51485000      10.12500000       0.03394200       0.18328200       0.02748100
C        5.11711000       0.19695000      10.12500000      -0.00196200       0.00104500       0.00329400
C        4.43489000       2.56044000      10.12500000      -0.02386700       0.00608700      -0.00744100
C        3.75255000       4.92400000      10.12500000      -0.00751100      -0.02853700      -0.00103000
C        3.07025000       7.28748000      10.12500000       0.01200700       0.00671100      -0.00326900
C        6.82288000       1.96958000      10.12500000      -0.17477000      -0.06351000       0.03384300
C        6.14058000       4.33307000      10.12500000       0.02828500       0.00944300      -0.00254100
Li       0.68228000       2.75743000      12.00000000      -0.00000000      -0.00000000      -0.00000000
53
Lattice="8.869700432 0.0 0.0 -4.434850216 7.681385898 0.0 0.0 0.0 24.0" Properties=species:S:1:pos:R:3:forces:R:3 stress="-0.005334112287653224 -3.7449054755299545e-07 -0.0 -3.7449054755299545e-07 -0.0053267223408481786 -0.0 -0.0 -0.0 0.004479262714754001" free_energy=-485.12077514 energy=-485.12004961 pbc="T T T"
C        0.00000000       0.00000000      13.87367000      -0.03411000      -0.18350500       0.00006100
C       -0.68230000       2.36349000      13.87753000      -0.18677900      -0.05043100       0.03601100
C       -1.36451000       4.72697000      13.87339000      -0.14444900       0.12093000      -0.00027400
C       -2.04686000       7.09053000      13.87518000      -0.00417100       0.01389900      -0.00690900
C        1.70569000       1.77263000      13.87744000       0.14183900      -0.12883000       0.03773400
C        1.02347000       4.13612000      13.87746000       0.04198200       0.18979000       0.03994100
C        0.34117000       6.49960000      13.87509000       0.01201100      -0.01974300      -0.00788500
C        4.09368000       1.18178000      13.87512000      -0.02805600      -0.01060600      -0.00843200
C        3.41138000       3.54527000      13.87337000       0.17451100       0.06313100       0.00066800
C        2.72916000       5.90875000      13.87516000      -0.01183700      -0.00671200      -0.00567300
C        6.48171000       0.59085000      13.87505000       0.00749300       0.02833300      -0.01020800
C        5.79936000       2.95441000      13.87536000       0.02378500      -0.00594100      -0.00408500
C        5.11715000       5.31790000      13.87484000       0.00195000      -0.00104400       0.00216500
C       -3.41146000       6.69663000      13.87509000      -0.01201100       0.01974300      -0.00788500
C        0.34108000       1.37873000      13.87746000      -0.04198200      -0.18979000       0.03994100
C       -0.34113000       3.74222000      13.87744000      -0.14183900       0.12883000       0.03773400
C       -1.02343000       6.10570000      13.87518000       0.00417100      -0.01389900      -0.00690900
C        2.72907000       0.78788000      13.87339000       0.14444900      -0.12093000      -0.00027400
C        2.04686000       3.15137000      13.87753000       0.18677900       0.05043100       0.03601100
C        1.36456000       5.51485000      13.87367000       0.03411000       0.18350500       0.00006100
C        5.11711000       0.19695000      13.87484000      -0.00195000       0.00104400       0.00216500
C        4.43489000       2.56044000      13.87536000      -0.02378500       0.00594100      -0.00408500
C        3.75255000       4.92400000      13.87505000      -0.00749300      -0.02833300      -0.01020800
C        3.07025000       7.28748000      13.87516000       0.01183700       0.00671200      -0.00567300
C        6.82288000       1.96958000      13.87337000      -0.17451100      -0.06313100       0.00066800
C        6.14058000       4.33307000      13.87512000       0.02805600       0.01060600      -0.00843200
C        0.00000000       0.00000000      10.12633000      -0.03411000      -0.18350500      -0.00006100
C       -0.68230000       2.36349000      10.12247000      -0.18677900      -0.05043100      -0.03601100
C       -1.36451000       4.72697000      10.12661000      -0.14444900       0.12093000       0.00027400
C       -2.04686000       7.09053000      10.12482000      -0.00417100       0.01389900       0.00690900
C        1.70569000       1.77263000      10.12256000       0.14183900      -0.12883000      -0.03773400
C        1.02347000       4.13612000      10.12254000       0.04198200       0.18979000      -0.03994100
C        0.34117000       6.49960000      10.12491000       0.01201100      -0.01974300       0.00788500
C        4.09368000       1.18178000      10.12488000      -0.02805600      -0.01060600       0.00843200
C        3.41138000       3.54527000      10.12663000       0.17451100       0.06313100      -0.00066800
C        2.72916000       5.90875000      10.12484000      -0.01183700      -0.00671200       0.00567300
C        6.48171000       0.59085000      10.12495000       0.00749300       0.02833300       0.01020800
C        5.79936000       2.95441000      10.12464000       0.02378500      -0.00594100       0.00408500
C        5.11715000       5.31790000      10.12516000       0.00195000      -0.00104400      -0.00216500
C       -3.41146000       6.69663000      10.12491000      -0.01201100       0.01974300       0.00788500
C        0.34108000       1.37873000      10.12254000      -0.04198200      -0.18979000      -0.03994100
C       -0.34113000       3.74222000      10.12256000      -0.14183900       0.12883000      -0.03773400
C       -1.02343000       6.10570000      10.12482000       0.00417100      -0.01389900       0.00690900
C        2.72907000       0.78788000      10.12661000       0.14444900      -0.12093000       0.00027400
C        2.04686000       3.15137000      10.12247000       0.18677900       0.05043100      -0.03601100
C        1.36456000       5.51485000      10.12633000       0.03411000       0.18350500      -0.00006100
C        5.11711000       0.19695000      10.12516000      -0.00195000       0.00104400      -0.00216500
C        4.43489000       2.56044000      10.12464000      -0.02378500       0.00594100       0.00408500
C        3.75255000       4.92400000      10.12495000      -0.00749300      -0.02833300       0.01020800
C        3.07025000       7.28748000      10.12484000       0.01183700       0.00671200       0.00567300
C        6.82288000       1.96958000      10.12663000      -0.17451100      -0.06313100      -0.00066800
C        6.14058000       4.33307000      10.12488000       0.02805600       0.01060600       0.00843200
Li       0.68228000       2.75743000      12.00000000       0.00000000      -0.00000000      -0.00000000
53
Lattice="8.869700432 0.0 0.0 -4.434850216 7.681385898 0.0 0.0 0.0 24.0" Properties=species:S:1:pos:R:3:forces:R:3 stress="-0.0053434371022872944 9.175018415048388e-07 -0.0 9.175018415048388e-07 -0.005323994801360168 -0.0 -0.0 -0.0 0.004503741913545716" free_energy=-485.12133835 energy=-485.120613 pbc="T T T"
C        0.00000000       0.00000000      13.87226000      -0.03410500      -0.18336300       0.02854500
C       -0.68230000       2.36349000      13.88023000      -0.18472700      -0.04871000       0.01587900
C       -1.36451000       4.72697000      13.87167000      -0.14621200       0.12172300       0.03330700
C       -2.04686000       7.09053000      13.87538000      -0.00421800       0.01380900      -0.01835900
C        1.70569000       1.77263000      13.88005000       0.14375300      -0.12750800       0.02081700
C        1.02347000       4.13612000      13.88009000       0.04169700       0.19027400       0.02434500
C        0.34117000       6.49960000      13.87519000       0.01187600      -0.01962200      -0.01831400
C        4.09368000       1.18178000      13.87525000      -0.02790000      -0.01054500      -0.02007500
C        3.41138000       3.54527000      13.87163000       0.17529000       0.06344700       0.03633000
C        2.72916000       5.90875000      13.87533000      -0.01171300      -0.00671500      -0.01524000
C        6.48171000       0.59085000      13.87510000       0.00746400       0.02816500      -0.02224700
C        5.79936000       2.95441000      13.87574000       0.02431900      -0.00485600      -0.01662200
C        5.11715000       5.31790000      13.87467000       0.00193600      -0.00104100       0.00793200
C       -3.41146000       6.69663000      13.87519000      -0.01187600       0.01962200      -0.01831400
C        0.34108000       1.37873000      13.88009000      -0.04169700      -0.19027400       0.02434500
C       -0.34113000       3.74222000      13.88005000      -0.14375300       0.12750800       0.02081700
C       -1.02343000       6.10570000      13.87538000       0.00421800      -0.01380900      -0.01835900
C        2.72907000       0.78788000      13.87167000       0.14621200      -0.12172300       0.03330700
C        2.04686000       3.15137000      13.88023000       0.18472700       0.04871000       0.01587900
C        1.36456000       5.51485000      13.87226000       0.03410500       0.18336300       0.02854500
C        5.11711000       0.19695000      13.87467000      -0.00193600       0.00104100       0.00793200
C        4.43489000       2.56044000      13.87574000      -0.02431900       0.00485600      -0.01662200
C        3.75255000       4.92400000      13.87510000      -0.00746400      -0.02816500      -0.02224700
C        3.07025000       7.28748000      13.87533000       0.01171300       0.00671500      -0.01524000
C        6.82288000       1.96958000      13.87163000      -0.17529000      -0.06344700       0.03633000
C        6.14058000       4.33307000      13.87525000       0.02790000       0.01054500      -0.02007500
C        0.00000000       0.00000000      10.12774000      -0.03410500      -0.18336300      -0.02854500
C       -0.68230000       2.36349000      10.11977000      -0.18472700      -0.04871000      -0.01587900
C       -1.36451000       4.72697000      10.12833000      -0.14621200       0.12172300      -0.03330700
C       -2.04686000       7.09053000      10.12462000      -0.00421800       0.01380900       0.01835900
C        1.70569000       1.77263000      10.11995000       0.14375300      -0.12750800      -0.02081700
C        1.02347000       4.13612000      10.11991000       0.04169700       0.19027400      -0.02434500
C        0.34117000       6.49960000      10.12481000       0.01187600      -0.01962200       0.01831400
C        4.09368000       1.18178000      10.12475000      -0.02790000      -0.01054500       0.02007500
C        3.41138000       3.54527000      10.12837000       0.17529000       0.06344700      -0.03633000
C        2.72916000       5.90875000      10.12467000      -0.01171300      -0.00671500       0.01524000
C        6.48171000       0.59085000      10.12490000       0.00746400       0.02816500       0.02224700
C        5.79936000       2.95441000      10.12426000       0.02431900      -0.00485600       0.01662200
C        5.11715000       5.31790000      10.12533000       0.00193600      -0.00104100      -0.00793200
C       -3.41146000       6.69663000      10.12481000      -0.01187600       0.01962200       0.01831400
C        0.34108000       1.37873000      10.11991000      -0.04169700      -0.19027400      -0.02434500
C       -0.34113000       3.74222000      10.11995000      -0.14375300       0.12750800      -0.02081700
C       -1.02343000       6.10570000      10.12462000       0.00421800      -0.01380900       0.01835900
C        2.72907000       0.78788000      10.12833000       0.14621200      -0.12172300      -0.03330700
C        2.04686000       3.15137000      10.11977000       0.18472700       0.04871000      -0.01587900
C        1.36456000       5.51485000      10.12774000       0.03410500       0.18336300      -0.02854500
C        5.11711000       0.19695000      10.12533000      -0.00193600       0.00104100      -0.00793200
C        4.43489000       2.56044000      10.12426000      -0.02431900       0.00485600       0.01662200
C        3.75255000       4.92400000      10.12490000      -0.00746400      -0.02816500       0.02224700
C        3.07025000       7.28748000      10.12467000       0.01171300       0.00671500       0.01524000
C        6.82288000       1.96958000      10.12837000      -0.17529000      -0.06344700      -0.03633000
C        6.14058000       4.33307000      10.12475000       0.02790000       0.01054500       0.02007500
Li       0.68228000       2.75743000      12.00000000       0.00000000       0.00000000      -0.00000000
53
Lattice="8.869700432 0.0 0.0 -4.434850216 7.681385898 0.0 0.0 0.0 24.0" Properties=species:S:1:pos:R:3:forces:R:3 stress="-0.005353036543322903 -2.652641378500385e-06 -0.0 -2.652641378500385e-06 -0.005346982279470796 -0.0 -0.0 -0.0 0.004529974976401803" free_energy=-485.12251267 energy=-485.12178751 pbc="T T T"
C        0.00000000       0.00000000      13.87291000      -0.03403900      -0.18294900       0.02621400
C       -0.68230000       2.36349000      13.88312000      -0.18468000      -0.04865000       0.01689700
C       -1.36451000       4.72697000      13.87238000      -0.14397100       0.12065200       0.02596400
C       -2.04686000       7.09053000      13.87445000      -0.00424200       0.01358600      -0.01610500
C        1.70569000       1.77263000      13.88315000       0.14415600      -0.12707100       0.01530600
C        1.02347000       4.13612000      13.88341000       0.04106800       0.18858400       0.01299700
C        0.34117000       6.49960000      13.87418000       0.01169400      -0.01938200      -0.00425700
C        4.09368000       1.18178000      13.87417000      -0.02713300      -0.00943300      -0.00257900
C        3.41138000       3.54527000      13.87249000       0.17409600       0.06297300       0.02518100
C        2.72916000       5.90875000      13.87456000      -0.01150800      -0.00660600      -0.01639600
C        6.48171000       0.59085000      13.87384000       0.00767000       0.02763000       0.00089800
C        5.79936000       2.95441000      13.87505000       0.02356500      -0.00576100      -0.01508100
C        5.11715000       5.31790000      13.87501000       0.00197400      -0.00105500      -0.02175100
C       -3.41146000       6.69663000      13.87418000      -0.01169400       0.01938200      -0.00425700
C        0.34108000       1.37873000      13.88341000      -0.04106800      -0.18858400       0.01299700
C       -0.34113000       3.74222000      13.88315000      -0.14415600       0.12707100       0.01530600
C       -1.02343000       6.10570000      13.87445000       0.00424200      -0.01358600      -0.01610500
C        2.72907000       0.78788000      13.87238000       0.14397100      -0.12065200       0.02596400
C        2.04686000       3.15137000      13.88312000       0.18468000       0.04865000       0.01689700
C        1.36456000       5.51485000      13.87291000       0.03403900       0.18294900       0.02621400
C        5.11711000       0.19695000      13.87501000      -0.00197400       0.00105500      -0.02175100
C        4.43489000       2.56044000      13.87505000      -0.02356500       0.00576100      -0.01508100
C        3.75255000       4.92400000      13.87384000      -0.00767000      -0.02763000       0.00089800
C        3.07025000       7.28748000      13.87456000       0.01150800       0.00660600      -0.01639600
C        6.82288000       1.96958000      13.87249000      -0.17409600      -0.06297300       0.02518100
C        6.14058000       4.33307000      13.87417000       0.02713300       0.00943300      -0.00257900
C        0.00000000       0.00000000      10.12709000      -0.03403900      -0.18294900      -0.02621400
C       -0.68230000       2.36349000      10.11688000      -0.18468000      -0.04865000      -0.01689700
C       -1.36451000       4.72697000      10.12762000      -0.14397100       0.12065200      -0.02596400
C       -2.04686000       7.09053000      10.12555000      -0.00424200       0.01358600       0.01610500
C        1.70569000       1.77263000      10.11685000       0.14415600      -0.12707100      -0.01530600
C        1.02347000       4.13612000      10.11659000       0.04106800       0.18858400      -0.01299700
C        0.34117000       6.49960000      10.12582000       0.01169400      -0.01938200       0.00425700
C        4.09368000       1.18178000      10.12583000      -0.02713300      -0.00943300       0.00257900
C        3.41138000       3.54527000      10.12751000       0.17409600       0.06297300      -0.02518100
C        2.72916000       5.90875000      10.12544000      -0.01150800      -0.00660600       0.01639600
C        6.48171000       0.59085000      10.12616000       0.00767000       0.02763000      -0.00089800
C        5.79936000       2.95441000      10.12495000       0.02356500      -0.00576100       0.01508100
C        5.11715000       5.31790000      10.12499000       0.00197400      -0.00105500       0.02175100
C       -3.41146000       6.69663000      10.12582000      -0.01169400       0.01938200       0.00425700
C        0.34108000       1.37873000      10.11659000      -0.04106800      -0.18858400      -0.01299700
C       -0.34113000       3.74222000      10.11685000      -0.14415600       0.12707100      -0.01530600
C       -1.02343000       6.10570000      10.12555000       0.00424200      -0.01358600       0.01610500
C        2.72907000       0.78788000      10.12762000       0.14397100      -0.12065200      -0.02596400
C        2.04686000       3.15137000      10.11688000       0.18468000       0.04865000      -0.01689700
C        1.36456000       5.51485000      10.12709000       0.03403900       0.18294900      -0.02621400
C        5.11711000       0.19695000      10.12499000      -0.00197400       0.00105500       0.02175100
C        4.43489000       2.56044000      10.12495000      -0.02356500       0.00576100       0.01508100
C        3.75255000       4.92400000      10.12616000      -0.00767000      -0.02763000      -0.00089800
C        3.07025000       7.28748000      10.12544000       0.01150800       0.00660600       0.01639600
C        6.82288000       1.96958000      10.12751000      -0.17409600      -0.06297300      -0.02518100
C        6.14058000       4.33307000      10.12583000       0.02713300       0.00943300       0.00257900
Li       0.68228000       2.75743000      12.00000000       0.00000000      -0.00000000      -0.00000000
53
Lattice="8.869700432 0.0 0.0 -4.434850216 7.681385898 0.0 0.0 0.0 24.0" Properties=species:S:1:pos:R:3:forces:R:3 stress="-0.00533355679334102 4.749788444797159e-06 -0.0 4.749788444797159e-06 -0.0053293437746810505 -0.0 -0.0 -0.0 0.004598650301313897" free_energy=-485.12311851 energy=-485.12239364 pbc="T T T"
C        0.00000000       0.00000000      13.87396000      -0.03388200      -0.18207200       0.02274400
C       -0.68230000       2.36349000      13.88783000      -0.18832200      -0.04712700       0.01064200
C       -1.36451000       4.72697000      13.87353000      -0.14334700       0.12023400       0.01630300
C       -2.04686000       7.09053000      13.87292000      -0.00404400       0.01381800      -0.01002000
C        1.70569000       1.77263000      13.88822000       0.13937200      -0.12705400       0.00120900
C        1.02347000       4.13612000      13.88885000       0.04022600       0.19017900      -0.00941700
C        0.34117000       6.49960000      13.87255000       0.01111500      -0.01884900       0.02029900
C        4.09368000       1.18178000      13.87241000      -0.02688100      -0.00979200       0.02608000
C        3.41138000       3.54527000      13.87390000       0.17359000       0.06277000       0.00995000
C        2.72916000       5.90875000      13.87330000      -0.01076100      -0.00663700      -0.01587800
C        6.48171000       0.59085000      13.87178000       0.00878300       0.02714300       0.03438400
C        5.79936000       2.95441000      13.87391000       0.02109700      -0.00336300      -0.01203700
C        5.11715000       5.31790000      13.87557000       0.00304000      -0.00161900      -0.07062300
C       -3.41146000       6.69663000      13.87255000      -0.01111500       0.01884900       0.02029900
C        0.34108000       1.37873000      13.88885000      -0.04022600      -0.19017900      -0.00941700
C       -0.34113000       3.74222000      13.88822000      -0.13937200       0.12705400       0.00120900
C       -1.02343000       6.10570000      13.87292000       0.00404400      -0.01381800      -0.01002000
C        2.72907000       0.78788000      13.87353000       0.14334700      -0.12023400       0.01630300
C        2.04686000       3.15137000      13.88783000       0.18832200       0.04712700       0.01064200
C        1.36456000       5.51485000      13.87396000       0.03388200       0.18207200       0.02274400
C        5.11711000       0.19695000      13.87557000      -0.00304000       0.00161900      -0.07062300
C        4.43489000       2.56044000      13.87391000      -0.02109700       0.00336300      -0.01203700
C        3.75255000       4.92400000      13.87178000      -0.00878300      -0.02714300       0.03438400
C        3.07025000       7.28748000      13.87330000       0.01076100       0.00663700      -0.01587800
C        6.82288000       1.96958000      13.87390000      -0.17359000      -0.06277000       0.00995000
C        6.14058000       4.33307000      13.87241000       0.02688100       0.00979200       0.02608000
C        0.00000000       0.00000000      10.12604000      -0.03388200      -0.18207200      -0.02274400
C       -0.68230000       2.36349000      10.11217000      -0.18832200      -0.04712700      -0.01064200
C       -1.36451000       4.72697000      10.12647000      -0.14334700       0.12023400      -0.01630300
C       -2.04686000       7.09053000      10.12708000      -0.00404400       0.01381800       0.01002000
C        1.70569000       1.77263000      10.11178000       0.13937200      -0.12705400      -0.00120900
C        1.02347000       4.13612000      10.11115000       0.04022600       0.19017900       0.00941700
C        0.34117000       6.49960000      10.12745000       0.01111500      -0.01884900      -0.02029900
C        4.09368000       1.18178000      10.12759000      -0.02688100      -0.00979200      -0.02608000
C        3.41138000       3.54527000      10.12610000       0.17359000       0.06277000      -0.00995000
C        2.72916000       5.90875000      10.12670000      -0.01076100      -0.00663700       0.01587800
C        6.48171000       0.59085000      10.12822000       0.00878300       0.02714300      -0.03438400
C        5.79936000       2.95441000      10.12609000       0.02109700      -0.00336300       0.01203700
C        5.11715000       5.31790000      10.12443000       0.00304000      -0.00161900       0.07062300
C       -3.41146000       6.69663000      10.12745000      -0.01111500       0.01884900      -0.02029900
C        0.34108000       1.37873000      10.11115000      -0.04022600      -0.19017900       0.00941700
C       -0.34113000       3.74222000      10.11178000      -0.13937200       0.12705400      -0.00120900
C       -1.02343000       6.10570000      10.12708000       0.00404400      -0.01381800       0.01002000
C        2.72907000       0.78788000      10.12647000       0.14334700      -0.12023400      -0.01630300
C        2.04686000       3.15137000      10.11217000       0.18832200       0.04712700      -0.01064200
C        1.36456000       5.51485000      10.12604000       0.03388200       0.18207200      -0.02274400
C        5.11711000       0.19695000      10.12443000      -0.00304000       0.00161900       0.07062300
C        4.43489000       2.56044000      10.12609000      -0.02109700       0.00336300       0.01203700
C        3.75255000       4.92400000      10.12822000      -0.00878300      -0.02714300      -0.03438400
C        3.07025000       7.28748000      10.12670000       0.01076100       0.00663700       0.01587800
C        6.82288000       1.96958000      10.12610000      -0.17359000      -0.06277000      -0.00995000
C        6.14058000       4.33307000      10.12759000       0.02688100       0.00979200      -0.02608000
Li       0.68228000       2.75743000      12.00000000       0.00000000      -0.00000000      -0.00000000
53
Lattice="8.869700432 0.0 0.0 -4.434850216 7.681385898 0.0 0.0 0.0 24.0" Properties=species:S:1:pos:R:3:forces:R:3 stress="-0.005326815963485066 1.2845025781067747e-05 -0.0 1.2845025781067747e-05 -0.005312810017006585 -0.0 -0.0 -0.0 0.004645661348050049" free_energy=-485.12388856 energy=-485.12316376 pbc="T T T"
C        0.00000000       0.00000000      13.87516000      -0.03377300      -0.18174600       0.01236400
C       -0.68230000       2.36349000      13.89029000      -0.18612700      -0.04642200       0.00149900