65
Lattice="9.840000153 0.0 0.0 -4.920000076 8.521690105 0.0 0.0 0.0 24.0" Properties=species:S:1:pos:R:3:forces:R:3 stress="-0.004675913942783205 6.592906089670486e-05 -6.179094034624426e-07 6.592906089670486e-05 -0.004599786255974807 3.557660201753457e-07 -6.179094034624426e-07 3.557660201753457e-07 -0.0010193383044027502" free_energy=-595.73553326 energy=-595.73257188 pbc="T T T"
C        0.00000000       0.00000000      13.67500000      -0.00142900      -0.32418300       0.15389200
C        8.61000000       2.13042000      13.67500000      -0.28284700       0.16330200       0.15398600
C       -2.46000000       4.26085000      13.67500000      -0.02445500      -0.02951800      -0.01150200
C       -3.69000000       6.39127000      13.67500000      -0.03930100      -0.00389800      -0.01149600
C        2.46000000       0.00000000      13.67500000       0.06476100      -0.03739000       0.00475100
C        1.23000000       2.13042000      13.67500000       0.28003600       0.16333000       0.15389200
C       -0.00000000       4.26085000      13.67500000      -0.00149000       0.07727600       0.00475100
C       -1.23000000       6.39127000      13.67500000      -0.04261900      -0.02292700      -0.01161800
C        4.92000000       0.00000000      13.67500000      -0.00145400       0.04837200      -0.01161800
C        3.69000000       2.13042000      13.67500000      -0.01627500       0.03598500      -0.01149600
C        2.46000000       4.26085000      13.67500000       0.02152900      -0.02954600      -0.01149500
C        1.23000000       6.39127000      13.67500000       0.03973700      -0.02294200      -0.01161500
C        7.38000000       0.00000000      13.67500000      -0.06766800      -0.03734700       0.00475100
C        6.15000000       2.13042000      13.67500000       0.01333600       0.03593700      -0.01150200
C        4.92000000       4.26085000      13.67500000      -0.00141900       0.00081900      -0.02055800
C        3.69000000       6.39127000      13.67500000       0.03635200      -0.00387100      -0.01149500
C       -0.00005000       1.42031000      13.67500000       0.00123100      -0.00071100       3.78181300
C       -1.23005000       3.55073000      13.67500000      -0.01723600       0.14752400       0.00933700
C       -2.46005000       5.68116000      13.67500000       0.06022400       0.03319300       0.01015200
C       -3.69005000       7.81158000      13.67500000       0.12044600      -0.09096100       0.00934900
C        2.45995000       1.42031000      13.67500000       0.13899800      -0.05882900       0.00934900
C        1.22995000       3.55073000      13.67500000       0.01991500       0.14745800       0.00935000
C       -0.00005000       5.68116000      13.67500000       0.00133200      -0.01334900      -0.00022100
C       -1.23005000       7.81158000      13.67500000      -0.00957900       0.00553100      -0.00022400
C        4.91995000       1.42031000      13.67500000       0.00136600      -0.06875200       0.01015200
C        3.68995000       3.55073000      13.67500000      -0.00646800      -0.00529400       0.00993200
C        2.45995000       5.68116000      13.67500000      -0.05755500       0.03323000       0.01014800
C        1.22995000       7.81158000      13.67500000       0.01222600       0.00552100      -0.00022100
C        7.37995000       1.42031000      13.67500000      -0.13637700      -0.05883600       0.00933700
C        6.14995000       3.55073000      13.67500000       0.00908600      -0.00524600       0.00993100
C        4.91995000       5.68116000      13.67500000       0.00135100       0.00824800       0.00993200
C        3.68995000       7.81158000      13.67500000      -0.11774400      -0.09097600       0.00935000
C        0.00000000       0.00000000      10.32500000       0.00148100      -0.28950600      -0.18238000
C        8.61000000       2.13042000      10.32500000      -0.24851800       0.14348200      -0.18241700
C       -2.46000000       4.26085000      10.32500000       0.01889100      -0.02988900       0.00614800
C       -3.69000000       6.39127000      10.32500000      -0.01495400       0.02874000       0.00615200
C        2.46000000       0.00000000      10.32500000       0.17531500      -0.10121800       0.04345300
C        1.23000000       2.13042000      10.32500000       0.25146000       0.14347000      -0.18238000
C       -0.00000000       4.26085000      10.32500000       0.00146700       0.19982700       0.04344900
C       -1.23000000       6.39127000      10.32500000       0.02383400       0.01202600       0.01007100
C        4.92000000       0.00000000      10.32500000       0.00150200      -0.02665400       0.01007100
C        3.69000000       2.13042000      10.32500000      -0.03236700      -0.00142000       0.00615200
C        2.46000000       4.26085000      10.32500000      -0.01591600      -0.02988800       0.00614500
C        1.23000000       6.39127000      10.32500000      -0.02083400       0.01202800       0.01007000
C        7.38000000       0.00000000      10.32500000      -0.17232100      -0.10118400       0.04344900
C        6.15000000       2.13042000      10.32500000       0.03533000      -0.00141500       0.00614800
C        4.92000000       4.26085000      10.32500000       0.00149100      -0.00086100       0.01697000
C        3.69000000       6.39127000      10.32500000       0.01792600       0.02872800       0.00614500
C        1.23005000       0.71011000      10.32500000       0.24280900      -0.14018600      -0.18427400
C        0.00005000       2.84053000      10.32500000      -0.00132300       0.28284900      -0.18443100
C       -1.22995000       4.97096000      10.32500000       0.02011300      -0.02961200      -0.01025000
C       -2.45995000       7.10138000      10.32500000      -0.01696100       0.03459700      -0.01025200
C        3.69005000       0.71011000      10.32500000      -0.03844300      -0.00261000      -0.01025200
C        2.46005000       2.84053000      10.32500000       0.16115100       0.09459300       0.02798000
C        1.23005000       4.97096000      10.32500000      -0.02283400      -0.02961700      -0.01025400
C        0.00005000       7.10138000      10.32500000      -0.00136500       0.00078800       0.00105200
C        6.15005000       0.71011000      10.32500000       0.03570100      -0.00261200      -0.01025000
C        4.92005000       2.84053000      10.32500000      -0.00136000       0.02363100      -0.00525700
C        3.69005000       4.97096000      10.32500000       0.01840800      -0.01062800      -0.00525600
C        2.46005000       7.10138000      10.32500000       0.01423200       0.03458300      -0.01025400
C        8.61005000       0.71011000      10.32500000      -0.24561600      -0.14027800      -0.18443100
C        7.38005000       2.84053000      10.32500000      -0.16391500       0.09463700       0.02796400
C        6.15005000       4.97096000      10.32500000      -0.02114500      -0.01063800      -0.00525700
C        4.92005000       7.10138000      10.32500000      -0.00134400      -0.18685700       0.02798000
Li      -0.00005000       1.42031000      12.00000000       0.00009500      -0.00005500      -3.37090500
65
Lattice="9.840000153 0.0 0.0 -4.920000076 8.521690105 0.0 0.0 0.0 24.0" Properties=species:S:1:pos:R:3:forces:R:3 stress="-0.004812390781329769 6.553584582177421e-05 -8.051546772389402e-07 6.553584582177421e-05 -0.00473671872468756 4.6187167531536115e-07 -8.051546772389402e-07 4.6187167531536115e-07 0.001280195936809915" free_energy=-596.06408877 energy=-596.06112806 pbc="T T T"
C        0.00000000       0.00000000      13.68242000      -0.00142900      -0.10894500       1.00730600
C        8.61000000       2.13042000      13.68243000      -0.09635600       0.05563100       1.00720000
C       -2.46000000       4.26085000      13.67445000      -0.01840400      -0.01830700      -0.08076000
C       -3.69000000       6.39127000      13.67445000      -0.02653600      -0.00432800      -0.08081000
C        2.46000000       0.00000000      13.67523000       0.05582000      -0.03222800       0.07053400
C        1.23000000       2.13042000      13.68242000       0.09363400       0.05571000       1.00730600
C       -0.00000000       4.26085000      13.67523000      -0.00144900       0.06688900       0.07044200
C       -1.23000000       6.39127000      13.67444000      -0.03499100      -0.01856600      -0.00120000
C        4.92000000       0.00000000      13.67444000      -0.00141700       0.03958600      -0.00120000
C        3.69000000       2.13042000      13.67445000      -0.00952000       0.02514500      -0.08081000
C        2.46000000       4.26085000      13.67445000       0.01551200      -0.01833200      -0.08086300
C        1.23000000       6.39127000      13.67444000       0.03218100      -0.01858000      -0.00120400
C        7.38000000       0.00000000      13.67523000      -0.05865200      -0.03219000       0.07044200
C        6.15000000       2.13042000      13.67445000       0.00665300       0.02509200      -0.08076000
C        4.92000000       4.26085000      13.67401000      -0.00138500       0.00080000       0.05183100
C        3.69000000       6.39127000      13.67445000       0.02363200      -0.00426800      -0.08086300
C       -0.00005000       1.42031000      13.85744000       0.00128300      -0.00074100      -1.59124900
C       -1.23005000       3.55073000      13.67545000      -0.02480600       0.14318000      -0.02466000
C       -2.46005000       5.68116000      13.67549000       0.04987000       0.02726800      -0.01955900
C       -3.69005000       7.81158000      13.67545000       0.11285300      -0.09528300      -0.02469400
C        2.45995000       1.42031000      13.67545000       0.13894400      -0.05009200      -0.02469400
C        1.22995000       3.55073000      13.67545000       0.02732400       0.14296200      -0.02504300
C       -0.00005000       5.68116000      13.67499000       0.00129500      -0.00959300      -0.00087500
C       -1.23005000       7.81158000      13.67499000      -0.00637800       0.00368200      -0.00087200
C        4.91995000       1.42031000      13.67549000       0.00132000      -0.05682300      -0.01955900
C        3.68995000       3.55073000      13.67548000      -0.00606200      -0.00501600       0.00399100
C        2.45995000       5.68116000      13.67549000      -0.04726900       0.02729100      -0.01980700
C        1.22995000       7.81158000      13.67499000       0.00895500       0.00367500      -0.00087500
C        7.37995000       1.42031000      13.67545000      -0.13640000      -0.05010800      -0.02466000
C        6.14995000       3.55073000      13.67548000       0.00861000      -0.00497100       0.00398800
C        4.91995000       5.68116000      13.67548000       0.00131200       0.00775800       0.00399100
C        3.68995000       7.81158000      13.67545000      -0.11014700      -0.09514400      -0.02504300
C        0.00000000       0.00000000      10.31620000       0.00150900      -0.42669500      -0.31075000
C        8.61000000       2.13042000      10.31620000      -0.36729400       0.21205800      -0.31087800
C       -2.46000000       4.26085000      10.32530000       0.02317300      -0.03183800       0.00880300
C       -3.69000000       6.39127000      10.32530000      -0.01446200       0.03335200       0.00880600
C        2.46000000       0.00000000      10.32710000       0.19478300      -0.11245800      -0.02709300
C        1.23000000       2.13042000      10.31620000       0.37028300       0.21204100      -0.31075000
C       -0.00000000       4.26085000      10.32710000       0.00150300       0.22223300      -0.02712500
C       -1.23000000       6.39127000      10.32549000       0.02808200       0.01443600       0.00082600
C        4.92000000       0.00000000      10.32549000       0.00153900      -0.03153800       0.00082600
C        3.69000000       2.13042000      10.32530000      -0.03611500      -0.00415200       0.00880600
C        2.46000000       4.26085000      10.32530000      -0.02012100      -0.03184300       0.00884100
C        1.23000000       6.39127000      10.32549000      -0.02500700       0.01443800       0.00084100
C        7.38000000       0.00000000      10.32710000      -0.19170800      -0.11241800      -0.02712500
C        6.15000000       2.13042000      10.32530000       0.03915900      -0.00414900       0.00880300
C        4.92000000       4.26085000      10.32582000       0.00153000      -0.00088300      -0.00858800
C        3.69000000       6.39127000      10.32530000       0.01751700       0.03334700       0.00884100
C        1.23005000       0.71011000      10.31611000       0.35797000      -0.20667400      -0.30430800
C        0.00005000       2.84053000      10.31610000      -0.00135000       0.41596600      -0.30444800
C       -1.22995000       4.97096000      10.32451000       0.02094300      -0.03532900       0.01590500
C       -2.45995000       7.10138000      10.32451000      -0.02153200       0.03823700       0.01590900
C        3.69005000       0.71011000      10.32451000      -0.04388000      -0.00047100       0.01590900
C        2.46005000       2.84053000      10.32635000       0.17665000       0.10358300      -0.02196700
C        1.23005000       4.97096000      10.32451000      -0.02374200      -0.03533400       0.01594400
C        0.00005000       7.10138000      10.32505000      -0.00140100       0.00080900       0.01124300
C        6.15005000       0.71011000      10.32451000       0.04106700      -0.00047300       0.01590500
C        4.92005000       2.84053000      10.32475000      -0.00139700       0.02755900       0.01011900
C        3.69005000       4.97096000      10.32475000       0.02175700      -0.01256200       0.01012700
C        2.46005000       7.10138000      10.32451000       0.01872900       0.03822900       0.01594400
C        8.61005000       0.71011000      10.31610000      -0.36091200      -0.20681400      -0.30444800
C        7.38005000       2.84053000      10.32635000      -0.17948900       0.10362800      -0.02200700
C        6.15005000       4.97096000      10.32475000      -0.02456600      -0.01256900       0.01011900
C        4.92005000       7.10138000      10.32635000      -0.00138000      -0.20477500      -0.02196700
Li      -0.00004000       1.42031000      11.83738000       0.00016600      -0.00009600       0.80196500
65
Lattice="9.840000153 0.0 0.0 -4.920000076 8.521690105 0.0 0.0 0.0 24.0" Properties=species:S:1:pos:R:3:forces:R:3 stress="-0.00478045922064175 6.573557411380247e-05 -7.427395859801078e-07 6.573557411380247e-05 -0.0047045499866527575 4.3066412968594477e-07 -7.427395859801078e-07 4.3066412968594477e-07 0.0008039625489958966" free_energy=-596.12442405 energy=-596.12146784 pbc="T T T"
C        0.00000000       0.00000000      13.68006000      -0.00142400      -0.21438800       0.72406500
C        8.61000000       2.13042000      13.68006000      -0.18771700       0.10837900       0.72402200
C       -2.46000000       4.26085000      13.67462000      -0.01943300      -0.02152000      -0.05902300
C       -3.69000000       6.39127000      13.67462000      -0.02983700      -0.00359300      -0.05905600
C        2.46000000       0.00000000      13.67516000       0.05501600      -0.03176400       0.05059300
C        1.23000000       2.13042000      13.68006000       0.18495400       0.10842700       0.72406500
C       -0.00000000       4.26085000      13.67516000      -0.00146000       0.06598200       0.05053000
C       -1.23000000       6.39127000      13.67462000      -0.03537300      -0.01877300      -0.00445400
C        4.92000000       0.00000000      13.67462000      -0.00142900       0.04002000      -0.00445400
C        3.69000000       2.13042000      13.67462000      -0.01180700       0.02763600      -0.05905600
C        2.46000000       4.26085000      13.67462000       0.01654100      -0.02154400      -0.05909500
C        1.23000000       6.39127000      13.67462000       0.03253900      -0.01878600      -0.00445600
C        7.38000000       0.00000000      13.67516000      -0.05787300      -0.03172700       0.05053000
C        6.15000000       2.13042000      13.67462000       0.00892000       0.02758900      -0.05902300
C        4.92000000       4.26085000      13.67432000      -0.00139700       0.00080700       0.03302000
C        3.69000000       6.39127000      13.67462000       0.02692800      -0.00355300      -0.05909500
C       -0.00005000       1.42031000      13.79931000       0.00128000      -0.00073900      -0.23683400
C       -1.23005000       3.55073000      13.67531000      -0.01981400       0.14908600      -0.01314100
C       -2.46005000       5.68116000      13.67533000       0.05211100       0.02854600      -0.01006500
C       -3.69005000       7.81158000      13.67531000       0.12048200      -0.09393300      -0.01316000
C        2.45995000       1.42031000      13.67531000       0.14158900      -0.05737400      -0.01316000
C        1.22995000       3.55073000      13.67531000       0.02240000       0.14895700      -0.01341800
C       -0.00005000       5.68116000      13.67499000       0.00130500      -0.00723600      -0.00070400
C       -1.23005000       7.81158000      13.67499000      -0.00432100       0.00249500      -0.00070300
C        4.91995000       1.42031000      13.67533000       0.00133400      -0.05940200      -0.01006500
C        3.68995000       3.55073000      13.67533000      -0.00627900      -0.00515100       0.00603400
C        2.45995000       5.68116000      13.67533000      -0.04949100       0.02857300      -0.01024900
C        1.22995000       7.81158000      13.67499000       0.00691900       0.00248800      -0.00070400
C        7.37995000       1.42031000      13.67531000      -0.13902000      -0.05738300      -0.01314100
C        6.14995000       3.55073000      13.67533000       0.00884700      -0.00510800       0.00603100
C        4.91995000       5.68116000      13.67533000       0.00132200       0.00801300       0.00603400
C        3.68995000       7.81158000      13.67531000      -0.11780000      -0.09387800      -0.01341800
C        0.00000000       0.00000000      10.31900000       0.00150000      -0.37563100      -0.26897900
C        8.61000000       2.13042000      10.31900000      -0.32308000       0.18653000      -0.26908000
C       -2.46000000       4.26085000      10.32520000       0.02168400      -0.03126100       0.00806100
C       -3.69000000       6.39127000      10.32520000      -0.01471900       0.03179400       0.00806500
C        2.46000000       0.00000000      10.32643000       0.18950400      -0.10941000      -0.00833700
C        1.23000000       2.13042000      10.31900000       0.32605600       0.18651600      -0.26897900
C       -0.00000000       4.26085000      10.32643000       0.00149200       0.21616000      -0.00836000
C       -1.23000000       6.39127000      10.32533000       0.02677700       0.01369600       0.00380500
C        4.92000000       0.00000000      10.32533000       0.00152800      -0.03003800       0.00380500
C        3.69000000       2.13042000      10.32520000      -0.03489400      -0.00315000       0.00806500
C        2.46000000       4.26085000      10.32520000      -0.01865400      -0.03126400       0.00808700
C        1.23000000       6.39127000      10.32533000      -0.02372500       0.01369800       0.00381500
C        7.38000000       0.00000000      10.32643000      -0.18645400      -0.10937300      -0.00836000
C        6.15000000       2.13042000      10.32520000       0.03791500      -0.00314800       0.00806100
C        4.92000000       4.26085000      10.32556000       0.00151800      -0.00087600       0.00805300
C        3.69000000       6.39127000      10.32520000       0.01774800       0.03178700       0.00808700
C        1.23005000       0.71011000      10.31894000       0.31479600      -0.18174800      -0.26485900
C        0.00005000       2.84053000      10.31894000      -0.00134300       0.36606500      -0.26500700
C       -1.22995000       4.97096000      10.32466000       0.02086500      -0.03335400       0.00762100
C       -2.45995000       7.10138000      10.32466000      -0.01985100       0.03716600       0.00762300
C        3.69005000       0.71011000      10.32466000      -0.04211200      -0.00139200       0.00762300
C        2.46005000       2.84053000      10.32592000       0.17235400       0.10109100      -0.00975800
C        1.23005000       4.97096000      10.32466000      -0.02364400      -0.03335900       0.00764700
C        0.00005000       7.10138000      10.32503000      -0.00139200       0.00080400       0.00807400
C        6.15005000       0.71011000      10.32466000       0.03931800      -0.00139300       0.00762100
C        4.92005000       2.84053000      10.32483000      -0.00138800       0.02632100       0.00531200
C        3.69005000       4.97096000      10.32483000       0.02069900      -0.01195100       0.00531800
C        2.46005000       7.10138000      10.32466000       0.01706800       0.03715600       0.00764700
C        8.61005000       0.71011000      10.31894000      -0.31769300      -0.18187000      -0.26500700
C        7.38005000       2.84053000      10.32592000      -0.17517200       0.10113600      -0.00978900
C        6.15005000       4.97096000      10.32483000      -0.02348900      -0.01195900       0.00531200
C        4.92005000       7.10138000      10.32592000      -0.00137100      -0.19980900      -0.00975800
Li      -0.00005000       1.42031000      11.88919000       0.00014500      -0.00008400      -0.13987800
65
Lattice="9.840000153 0.0 0.0 -4.920000076 8.521690105 0.0 0.0 0.0 24.0" Properties=species:S:1:pos:R:3:forces:R:3 stress="-0.004808202728706301 6.514887225596946e-05 2.1907697031850235e-06 6.514887225596946e-05 -0.004732980060721156 -1.2670263525543015e-06 2.1907697031850235e-06 -1.2670263525543015e-06 0.0010737455394530745" free_energy=-596.19369405 energy=-596.19074189 pbc="T T T"
C        0.00000000       0.00000000      13.71327000      -0.00132900      -0.25763300       0.24880000
C        8.61000000       2.13042000      13.71327000      -0.22503900       0.12992600       0.24888300
C       -2.46000000       4.26085000      13.67192000      -0.02637300      -0.02135100      -0.03360700
C       -3.69000000       6.39127000      13.67192000      -0.03305900      -0.00986200      -0.03364900
C        2.46000000       0.00000000      13.67746000       0.05390600      -0.03112300      -0.00796700
C        1.23000000       2.13042000      13.71327000       0.22245200       0.12996800       0.24880000
C       -0.00000000       4.26085000      13.67745000      -0.00135900       0.06451800      -0.00815800
C       -1.23000000       6.39127000      13.67438000      -0.03315000      -0.01760600       0.01053800
C        4.92000000       0.00000000      13.67438000      -0.00132700       0.03751200       0.01053800
C        3.69000000       2.13042000      13.67192000      -0.00798900       0.03356100      -0.03364900
C        2.46000000       4.26085000      13.67191000       0.02367600      -0.02138300      -0.03389500
C        1.23000000       6.39127000      13.67438000       0.03051700      -0.01761900       0.01039500
C        7.38000000       0.00000000      13.67745000      -0.05655400      -0.03108200      -0.00815800
C        6.15000000       2.13042000      13.67192000       0.00530400       0.03351500      -0.03360700
C        4.92000000       4.26085000      13.67575000      -0.00130100       0.00075100       0.02311900
C        3.69000000       6.39127000      13.67191000       0.03035600      -0.00981300      -0.03389500
C       -0.00005000       1.42031000      13.80115000       0.00137900      -0.00079600       0.19648900
C       -1.23005000       3.55073000      13.67474000      -0.01205500       0.12451800       0.18006100
C       -2.46005000       5.68116000      13.67491000       0.04847400       0.02634400      -0.06559400
C       -3.69005000       7.81158000      13.67474000       0.10317400      -0.07508800       0.18005100
C        2.45995000       1.42031000      13.67474000       0.11661600      -0.05180700       0.18005100
C        1.22995000       3.55073000      13.67473000       0.01482300       0.12438300       0.17990500
C       -0.00005000       5.68116000      13.67496000       0.00139700      -0.00510700      -0.01651300
C       -1.23005000       7.81158000      13.67496000      -0.00234000       0.00135100      -0.01647900
C        4.91995000       1.42031000      13.67491000       0.00142200      -0.05515200      -0.06559400
C        3.68995000       3.55073000      13.67563000      -0.00601100      -0.00509900      -0.01226800
C        2.45995000       5.68116000      13.67490000      -0.04567100       0.02636800      -0.06573100
C        1.22995000       7.81158000      13.67496000       0.00512100       0.00134400      -0.01651300
C        7.37995000       1.42031000      13.67474000      -0.11386300      -0.05182000       0.18006100
C        6.14995000       3.55073000      13.67563000       0.00876500      -0.00506000      -0.01223800
C        4.91995000       5.68116000      13.67563000       0.00141000       0.00775500      -0.01226800
C        3.68995000       7.81158000      13.67473000      -0.10030700      -0.07502900       0.17990500
C        0.00000000       0.00000000      10.30625000       0.00160300      -0.38363500      -0.24186500
C        8.61000000       2.13042000      10.30625000      -0.32984300       0.19043500      -0.24198000
C       -2.46000000       4.26085000      10.32559000       0.02158800      -0.03044200      -0.00395900
C       -3.69000000       6.39127000      10.32559000      -0.01395700       0.03112700      -0.00394600
C        2.46000000       0.00000000      10.32620000       0.19186500      -0.11077300      -0.05562100
C        1.23000000       2.13042000      10.30625000       0.33303900       0.19042900      -0.24186500
C       -0.00000000       4.26085000      10.32619000       0.00159300       0.21870400      -0.05563700
C       -1.23000000       6.39127000      10.32554000       0.02738800       0.01393200       0.01418800
C        4.92000000       0.00000000      10.32554000       0.00162900      -0.03068400       0.01418800
C        3.69000000       2.13042000      10.32559000      -0.03393500      -0.00347700      -0.00394600
C        2.46000000       4.26085000      10.32559000      -0.01835700      -0.03044800      -0.00387900
C        1.23000000       6.39127000      10.32554000      -0.02413200       0.01393300       0.01424300
C        7.38000000       0.00000000      10.32619000      -0.18860600      -0.11073200      -0.05563700
C        6.15000000       2.13042000      10.32559000       0.03715700      -0.00347500      -0.00395900
C        4.92000000       4.26085000      10.32598000       0.00161900      -0.00093500      -0.01090300
C        3.69000000       6.39127000      10.32559000       0.01719000       0.03112200      -0.00387900
C        1.23005000       0.71011000      10.30637000       0.31967100      -0.18456200      -0.23881400
C        0.00005000       2.84053000      10.30636000      -0.00125800       0.37153300      -0.23885700
C       -1.22995000       4.97096000      10.32497000       0.02115300      -0.03402200       0.00996700
C       -2.45995000       7.10138000      10.32497000      -0.02019500       0.03759400       0.00997400
C        3.69005000       0.71011000      10.32497000      -0.04265500      -0.00130800       0.00997400
C        2.46005000       2.84053000      10.32557000       0.16973800       0.10186400      -0.04539000
C        1.23005000       4.97096000      10.32497000      -0.02375300      -0.03402800       0.01004700
C        0.00005000       7.10138000      10.32540000      -0.00130300       0.00075200       0.00191400
C        6.15005000       0.71011000      10.32497000       0.04004000      -0.00130800       0.00996700
C        4.92005000       2.84053000      10.32505000      -0.00129800       0.02659600       0.01684300
C        3.69005000       4.97096000      10.32505000       0.02107100      -0.01216500       0.01688700
C        2.46005000       7.10138000      10.32497000       0.01759200       0.03758500       0.01004700
C        8.61005000       0.71011000      10.30636000      -0.32238500      -0.18467700      -0.23885700
C        7.38005000       2.84053000      10.32557000      -0.17651000       0.10190800      -0.04545900
C        6.15005000       4.97096000      10.32505000      -0.02368100      -0.01217400       0.01684300
C        4.92005000       7.10138000      10.32557000      -0.00334800      -0.19793000      -0.04539000
Li      -0.00004000       1.42030000      11.87171000       0.00021600      -0.00012500       0.05694800
65
Lattice="9.840000153 0.0 0.0 -4.920000076 8.521690105 0.0 0.0 0.0 24.0" Properties=species:S:1:pos:R:3:forces:R:3 stress="-0.0047648741723544195 6.559826091303305e-05 -5.929433669589095e-07 6.559826091303305e-05 -0.004689133459111826 3.4328300192357923e-07 -5.929433669589095e-07 3.4328300192357923e-07 0.0012765883445351545" free_energy=-596.21142236 energy=-596.20847214 pbc="T T T"
C        0.00000000       0.00000000      13.73971000      -0.00143800      -0.30422700      -0.14096300
C        8.61000000       2.13042000      13.73971000      -0.26553900       0.15330900      -0.14078200
C       -2.46000000       4.26085000      13.66977000      -0.03071200      -0.02139800      -0.02084500
C       -3.69000000       6.39127000      13.66976000      -0.03536000      -0.01344000      -0.02089400
C        2.46000000       0.00000000      13.67929000       0.05429600      -0.03134800      -0.05271600
C        1.23000000       2.13042000      13.73971000       0.26275000       0.15335900      -0.14096300
C       -0.00000000       4.26085000      13.67928000      -0.00145300       0.06511300      -0.05300800