65
Lattice="9.840000153 0.0 0.0 -4.920000076 8.521690105 0.0 0.0 0.0 24.0" Properties=species:S:1:pos:R:3:forces:R:3 stress="-0.004752291289956639 6.606637409747429e-05 -0.0 6.606637409747429e-05 -0.004676007565420094 -0.0 -0.0 -0.0 0.004827982071126225" free_energy=-596.63754013 energy=-596.6353401 pbc="T T T"
C        0.00000000       0.00000000      13.87500000      -0.16901700      -0.09599400       0.01966200
C        8.61000000       2.13042000      13.87500000      -0.16313300       0.09418500      -0.06372200
C       -2.46000000       4.26085000      13.87500000      -0.02251000      -0.01140600      -0.03623900
C       -3.69000000       6.39127000      13.87500000      -0.00135000      -0.18597700      -0.06372200
C        2.46000000       0.00000000      13.87500000       0.16626500      -0.09599300       0.01966600
C        1.23000000       2.13042000      13.87500000      -0.00137600       0.19437000       0.01966200
C       -0.00000000       4.26085000      13.87500000       0.01110000      -0.02160000      -0.02871900
C       -1.23000000       6.39127000      13.87500000      -0.01451100       0.02278500      -0.02871800
C        4.92000000       0.00000000      13.87500000      -0.02698800       0.00117400      -0.02871800
C        3.69000000       2.13042000      13.87500000       0.16038600       0.09415800      -0.06372200
C        2.46000000       4.26085000      13.87500000      -0.01384300      -0.02158500      -0.02871800
C        1.23000000       6.39127000      13.87500000      -0.00137600       0.00079500      -0.03823800
C        7.38000000       0.00000000      13.87500000       0.02425600       0.00118700      -0.02871900
C        6.15000000       2.13042000      13.87500000      -0.00137800       0.02519700      -0.03623900
C        4.92000000       4.26085000      13.87500000       0.01975500      -0.01140600      -0.03624000
C        3.69000000       6.39127000      13.87500000       0.01177200       0.02278100      -0.02871800
C       -0.00005000       1.42031000      13.87500000      -0.16625700       0.09598900       0.01964200
C       -1.23005000       3.55073000      13.87500000       0.01451500      -0.02278500      -0.02871800
C       -2.46005000       5.68116000      13.87500000      -0.01111200       0.02158800      -0.02871800
C       -3.69005000       7.81158000      13.87500000       0.00136000      -0.19437400       0.01967500
C        2.45995000       1.42031000      13.87500000       0.16901300       0.09600900       0.01967500
C        1.22995000       3.55073000      13.87500000       0.00134800       0.18596500      -0.06372200
C       -0.00005000       5.68116000      13.87500000       0.02250600       0.01141100      -0.03623900
C       -1.23005000       7.81158000      13.87500000       0.16314800      -0.09419400      -0.06372100
C        4.91995000       1.42031000      13.87500000      -0.02425100      -0.00117100      -0.02871800
C        3.68995000       3.55073000      13.87500000      -0.01177700      -0.02278200      -0.02871800
C        2.45995000       5.68116000      13.87500000      -0.01975200       0.01140400      -0.03624100
C        1.22995000       7.81158000      13.87500000       0.00137100      -0.02519700      -0.03623900
C        7.37995000       1.42031000      13.87500000       0.02699000      -0.00117800      -0.02871800
C        6.14995000       3.55073000      13.87500000       0.00137000      -0.00079100      -0.03823700
C        4.91995000       5.68116000      13.87500000       0.01384100       0.02159000      -0.02871800
C        3.68995000       7.81158000      13.87500000      -0.16037600      -0.09414900      -0.06372200
C        0.00000000       0.00000000      10.12500000      -0.16901700      -0.09599400      -0.01966200
C        8.61000000       2.13042000      10.12500000      -0.16313300       0.09418500       0.06372200
C       -2.46000000       4.26085000      10.12500000      -0.02251000      -0.01140600       0.03623900
C       -3.69000000       6.39127000      10.12500000      -0.00135000      -0.18597700       0.06372200
C        2.46000000       0.00000000      10.12500000       0.16626500      -0.09599300      -0.01966600
C        1.23000000       2.13042000      10.12500000      -0.00137600       0.19437000      -0.01966200
C       -0.00000000       4.26085000      10.12500000       0.01110000      -0.02160000       0.02871900
C       -1.23000000       6.39127000      10.12500000      -0.01451100       0.02278500       0.02871800
C        4.92000000       0.00000000      10.12500000      -0.02698800       0.00117400       0.02871800
C        3.69000000       2.13042000      10.12500000       0.16038600       0.09415800       0.06372200
C        2.46000000       4.26085000      10.12500000      -0.01384300      -0.02158500       0.02871800
C        1.23000000       6.39127000      10.12500000      -0.00137600       0.00079500       0.03823800
C        7.38000000       0.00000000      10.12500000       0.02425600       0.00118700       0.02871900
C        6.15000000       2.13042000      10.12500000      -0.00137800       0.02519700       0.03623900
C        4.92000000       4.26085000      10.12500000       0.01975500      -0.01140600       0.03624000
C        3.69000000       6.39127000      10.12500000       0.01177200       0.02278100       0.02871800
C       -0.00005000       1.42031000      10.12500000      -0.16625700       0.09598900      -0.01964200
C       -1.23005000       3.55073000      10.12500000       0.01451500      -0.02278500       0.02871800
C       -2.46005000       5.68116000      10.12500000      -0.01111200       0.02158800       0.02871800
C       -3.69005000       7.81158000      10.12500000       0.00136000      -0.19437400      -0.01967500
C        2.45995000       1.42031000      10.12500000       0.16901300       0.09600900      -0.01967500
C        1.22995000       3.55073000      10.12500000       0.00134800       0.18596500       0.06372200
C       -0.00005000       5.68116000      10.12500000       0.02250600       0.01141100       0.03623900
C       -1.23005000       7.81158000      10.12500000       0.16314800      -0.09419400       0.06372100
C        4.91995000       1.42031000      10.12500000      -0.02425100      -0.00117100       0.02871800
C        3.68995000       3.55073000      10.12500000      -0.01177700      -0.02278200       0.02871800
C        2.45995000       5.68116000      10.12500000      -0.01975200       0.01140400       0.03624100
C        1.22995000       7.81158000      10.12500000       0.00137100      -0.02519700       0.03623900
C        7.37995000       1.42031000      10.12500000       0.02699000      -0.00117800       0.02871800
C        6.14995000       3.55073000      10.12500000       0.00137000      -0.00079100       0.03823700
C        4.91995000       5.68116000      10.12500000       0.01384100       0.02159000       0.02871800
C        3.68995000       7.81158000      10.12500000      -0.16037600      -0.09414900       0.06372200
Li       1.23000000       0.71011000      12.00000000       0.00002700      -0.00001600       0.00000000
65
Lattice="9.840000153 0.0 0.0 -4.920000076 8.521690105 0.0 0.0 0.0 24.0" Properties=species:S:1:pos:R:3:forces:R:3 stress="-0.004686050153603639 6.606013258834841e-05 -0.0 6.606013258834841e-05 -0.004609766429067095 -0.0 -0.0 -0.0 0.005125252667773793" free_energy=-596.64095294 energy=-596.63875903 pbc="T T T"
C        0.00000000       0.00000000      13.87595000      -0.16893600      -0.09594600       0.00794600
C        8.61000000       2.13042000      13.87193000      -0.16327100       0.09426500      -0.02414700
C       -2.46000000       4.26085000      13.87325000      -0.02248300      -0.01138900      -0.02242700
C       -3.69000000       6.39127000      13.87193000      -0.00135000      -0.18613700      -0.02414100
C        2.46000000       0.00000000      13.87595000       0.16618400      -0.09594600       0.00797200
C        1.23000000       2.13042000      13.87595000      -0.00137600       0.19427600       0.00794600
C       -0.00000000       4.26085000      13.87361000       0.01097000      -0.02157900      -0.02999700
C       -1.23000000       6.39127000      13.87361000      -0.01455800       0.02266200      -0.02999900
C        4.92000000       0.00000000      13.87361000      -0.02690500       0.00127700      -0.02999900
C        3.69000000       2.13042000      13.87193000       0.16052500       0.09423800      -0.02414100
C        2.46000000       4.26085000      13.87361000      -0.01371300      -0.02156400      -0.03001000
C        1.23000000       6.39127000      13.87316000      -0.00137700       0.00079500      -0.03024400
C        7.38000000       0.00000000      13.87361000       0.02417300       0.00128900      -0.02999700
C        6.15000000       2.13042000      13.87325000      -0.00137800       0.02516600      -0.02242700
C        4.92000000       4.26085000      13.87325000       0.01972800      -0.01139000      -0.02242700
C        3.69000000       6.39127000      13.87361000       0.01181900       0.02265800      -0.03001000
C       -0.00005000       1.42031000      13.87595000      -0.16617500       0.09594100       0.00795500
C       -1.23005000       3.55073000      13.87361000       0.01456100      -0.02266200      -0.03000000
C       -2.46005000       5.68116000      13.87361000      -0.01098200       0.02156600      -0.02999600
C       -3.69005000       7.81158000      13.87595000       0.00136100      -0.19428100       0.00795500
C        2.45995000       1.42031000      13.87595000       0.16893300       0.09596200       0.00795500
C        1.22995000       3.55073000      13.87193000       0.00134700       0.18612400      -0.02414500
C       -0.00005000       5.68116000      13.87325000       0.02247900       0.01139600      -0.02242700
C       -1.23005000       7.81158000      13.87193000       0.16328700      -0.09427400      -0.02414000
C        4.91995000       1.42031000      13.87361000      -0.02416800      -0.00127300      -0.02999600
C        3.68995000       3.55073000      13.87361000      -0.01182400      -0.02265800      -0.03001100
C        2.45995000       5.68116000      13.87325000      -0.01972500       0.01138800      -0.02242700
C        1.22995000       7.81158000      13.87325000       0.00137000      -0.02516500      -0.02242700
C        7.37995000       1.42031000      13.87361000       0.02690600      -0.00127900      -0.03000000
C        6.14995000       3.55073000      13.87316000       0.00137000      -0.00079100      -0.03024400
C        4.91995000       5.68116000      13.87361000       0.01371100       0.02156900      -0.03001100
C        3.68995000       7.81158000      13.87193000      -0.16051500      -0.09422900      -0.02414500
C        0.00000000       0.00000000      10.12405000      -0.16893600      -0.09594600      -0.00794600
C        8.61000000       2.13042000      10.12807000      -0.16327100       0.09426500       0.02414700
C       -2.46000000       4.26085000      10.12675000      -0.02248300      -0.01138900       0.02242700
C       -3.69000000       6.39127000      10.12807000      -0.00135000      -0.18613700       0.02414100
C        2.46000000       0.00000000      10.12405000       0.16618400      -0.09594600      -0.00797200
C        1.23000000       2.13042000      10.12405000      -0.00137600       0.19427600      -0.00794600
C       -0.00000000       4.26085000      10.12639000       0.01097000      -0.02157900       0.02999700
C       -1.23000000       6.39127000      10.12639000      -0.01455800       0.02266200       0.02999900
C        4.92000000       0.00000000      10.12639000      -0.02690500       0.00127700       0.02999900
C        3.69000000       2.13042000      10.12807000       0.16052500       0.09423800       0.02414100
C        2.46000000       4.26085000      10.12639000      -0.01371300      -0.02156400       0.03001000
C        1.23000000       6.39127000      10.12684000      -0.00137700       0.00079500       0.03024400
C        7.38000000       0.00000000      10.12639000       0.02417300       0.00128900       0.02999700
C        6.15000000       2.13042000      10.12675000      -0.00137800       0.02516600       0.02242700
C        4.92000000       4.26085000      10.12675000       0.01972800      -0.01139000       0.02242700
C        3.69000000       6.39127000      10.12639000       0.01181900       0.02265800       0.03001000
C       -0.00005000       1.42031000      10.12405000      -0.16617500       0.09594100      -0.00795500
C       -1.23005000       3.55073000      10.12639000       0.01456100      -0.02266200       0.03000000
C       -2.46005000       5.68116000      10.12639000      -0.01098200       0.02156600       0.02999600
C       -3.69005000       7.81158000      10.12405000       0.00136100      -0.19428100      -0.00795500
C        2.45995000       1.42031000      10.12405000       0.16893300       0.09596200      -0.00795500
C        1.22995000       3.55073000      10.12807000       0.00134700       0.18612400       0.02414500
C       -0.00005000       5.68116000      10.12675000       0.02247900       0.01139600       0.02242700
C       -1.23005000       7.81158000      10.12807000       0.16328700      -0.09427400       0.02414000
C        4.91995000       1.42031000      10.12639000      -0.02416800      -0.00127300       0.02999600
C        3.68995000       3.55073000      10.12639000      -0.01182400      -0.02265800       0.03001100
C        2.45995000       5.68116000      10.12675000      -0.01972500       0.01138800       0.02242700
C        1.22995000       7.81158000      10.12675000       0.00137000      -0.02516500       0.02242700
C        7.37995000       1.42031000      10.12639000       0.02690600      -0.00127900       0.03000000
C        6.14995000       3.55073000      10.12684000       0.00137000      -0.00079100       0.03024400
C        4.91995000       5.68116000      10.12639000       0.01371100       0.02156900       0.03001100
C        3.68995000       7.81158000      10.12807000      -0.16051500      -0.09422900       0.02414500
Li       1.23000000       0.71011000      12.00000000       0.00002700      -0.00001600      -0.00000000
65
Lattice="9.840000153 0.0 0.0 -4.920000076 8.521690105 0.0 0.0 0.0 24.0" Properties=species:S:1:pos:R:3:forces:R:3 stress="-0.0046810631878120585 6.606013258834841e-05 -0.0 6.606013258834841e-05 -0.004604779463275514 -0.0 -0.0 -0.0 0.005128460803464497" free_energy=-596.64413165 energy=-596.64194556 pbc="T T T"
C        0.00000000       0.00000000      13.87728000      -0.16919400      -0.09609400      -0.00844800
C        8.61000000       2.13042000      13.86760000      -0.16316300       0.09420200       0.01301100
C       -2.46000000       4.26085000      13.87079000      -0.02242200      -0.01135400      -0.02116400
C       -3.69000000       6.39127000      13.86760000      -0.00135000      -0.18601300       0.01302700
C        2.46000000       0.00000000      13.87728000       0.16644200      -0.09609500      -0.00839000
C        1.23000000       2.13042000      13.87728000      -0.00137700       0.19457400      -0.00844800
C       -0.00000000       4.26085000      13.87167000       0.01091000      -0.02158100      -0.04989500
C       -1.23000000       6.39127000      13.87167000      -0.01459000       0.02261100      -0.04990400
C        4.92000000       0.00000000      13.87167000      -0.02687700       0.00133000      -0.04990400
C        3.69000000       2.13042000      13.86760000       0.16041700       0.09417500       0.01302700
C        2.46000000       4.26085000      13.87167000      -0.01365300      -0.02156700      -0.04993100
C        1.23000000       6.39127000      13.87056000      -0.00137700       0.00079500      -0.03725500
C        7.38000000       0.00000000      13.87167000       0.02414500       0.00134200      -0.04989500
C        6.15000000       2.13042000      13.87079000      -0.00137800       0.02509500      -0.02116400
C        4.92000000       4.26085000      13.87079000       0.01966700      -0.01135400      -0.02116200
C        3.69000000       6.39127000      13.87167000       0.01185100       0.02260700      -0.04993100
C       -0.00005000       1.42031000      13.87728000      -0.16643100       0.09608900      -0.00839900
C       -1.23005000       3.55073000      13.87167000       0.01459400      -0.02261100      -0.04990400
C       -2.46005000       5.68116000      13.87167000      -0.01092100       0.02156800      -0.04989400
C       -3.69005000       7.81158000      13.87728000       0.00136200      -0.19457900      -0.00844400
C        2.45995000       1.42031000      13.87728000       0.16919200       0.09611000      -0.00844400
C        1.22995000       3.55073000      13.86760000       0.00134200       0.18600200       0.01301800
C       -0.00005000       5.68116000      13.87079000       0.02241900       0.01136000      -0.02116500
C       -1.23005000       7.81158000      13.86760000       0.16317400      -0.09420900       0.01302700
C        4.91995000       1.42031000      13.87167000      -0.02413900      -0.00132600      -0.04989400
C        3.68995000       3.55073000      13.87167000      -0.01185500      -0.02260800      -0.04993300
C        2.45995000       5.68116000      13.87079000      -0.01966200       0.01135200      -0.02116000
C        1.22995000       7.81158000      13.87079000       0.00137100      -0.02509500      -0.02116500
C        7.37995000       1.42031000      13.87167000       0.02687900      -0.00133300      -0.04990400
C        6.14995000       3.55073000      13.87056000       0.00137100      -0.00079200      -0.03725500
C        4.91995000       5.68116000      13.87167000       0.01365200       0.02157100      -0.04993300
C        3.68995000       7.81158000      13.86760000      -0.16041100      -0.09416300       0.01301800
C        0.00000000       0.00000000      10.12272000      -0.16919400      -0.09609400       0.00844800
C        8.61000000       2.13042000      10.13240000      -0.16316300       0.09420200      -0.01301100
C       -2.46000000       4.26085000      10.12921000      -0.02242200      -0.01135400       0.02116400
C       -3.69000000       6.39127000      10.13240000      -0.00135000      -0.18601300      -0.01302700
C        2.46000000       0.00000000      10.12272000       0.16644200      -0.09609500       0.00839000
C        1.23000000       2.13042000      10.12272000      -0.00137700       0.19457400       0.00844800
C       -0.00000000       4.26085000      10.12833000       0.01091000      -0.02158100       0.04989500
C       -1.23000000       6.39127000      10.12833000      -0.01459000       0.02261100       0.04990400
C        4.92000000       0.00000000      10.12833000      -0.02687700       0.00133000       0.04990400
C        3.69000000       2.13042000      10.13240000       0.16041700       0.09417500      -0.01302700
C        2.46000000       4.26085000      10.12833000      -0.01365300      -0.02156700       0.04993100
C        1.23000000       6.39127000      10.12944000      -0.00137700       0.00079500       0.03725500
C        7.38000000       0.00000000      10.12833000       0.02414500       0.00134200       0.04989500
C        6.15000000       2.13042000      10.12921000      -0.00137800       0.02509500       0.02116400
C        4.92000000       4.26085000      10.12921000       0.01966700      -0.01135400       0.02116200
C        3.69000000       6.39127000      10.12833000       0.01185100       0.02260700       0.04993100
C       -0.00005000       1.42031000      10.12272000      -0.16643100       0.09608900       0.00839900
C       -1.23005000       3.55073000      10.12833000       0.01459400      -0.02261100       0.04990400
C       -2.46005000       5.68116000      10.12833000      -0.01092100       0.02156800       0.04989400
C       -3.69005000       7.81158000      10.12272000       0.00136200      -0.19457900       0.00844400
C        2.45995000       1.42031000      10.12272000       0.16919200       0.09611000       0.00844400
C        1.22995000       3.55073000      10.13240000       0.00134200       0.18600200      -0.01301800
C       -0.00005000       5.68116000      10.12921000       0.02241900       0.01136000       0.02116500
C       -1.23005000       7.81158000      10.13240000       0.16317400      -0.09420900      -0.01302700
C        4.91995000       1.42031000      10.12833000      -0.02413900      -0.00132600       0.04989400
C        3.68995000       3.55073000      10.12833000      -0.01185500      -0.02260800       0.04993300
C        2.45995000       5.68116000      10.12921000      -0.01966200       0.01135200       0.02116000
C        1.22995000       7.81158000      10.12921000       0.00137100      -0.02509500       0.02116500
C        7.37995000       1.42031000      10.12833000       0.02687900      -0.00133300       0.04990400
C        6.14995000       3.55073000      10.12944000       0.00137100      -0.00079200       0.03725500
C        4.91995000       5.68116000      10.12833000       0.01365200       0.02157100       0.04993300
C        3.68995000       7.81158000      10.13240000      -0.16041100      -0.09416300      -0.01301800
Li       1.23000000       0.71011000      12.00000000       0.00002800      -0.00001600       0.00000000
65
Lattice="9.840000153 0.0 0.0 -4.920000076 8.521690105 0.0 0.0 0.0 24.0" Properties=species:S:1:pos:R:3:forces:R:3 stress="-0.004738210445368646 6.604764957009664e-05 -0.0 6.604764957009664e-05 -0.004661951686868605 -0.0 -0.0 -0.0 0.005057232701319917" free_energy=-596.6463927 energy=-596.64421968 pbc="T T T"
C        0.00000000       0.00000000      13.87995000      -0.17092800      -0.09709400      -0.04106500
C        8.61000000       2.13042000      13.85895000      -0.16186400       0.09345200       0.10938100
C       -2.46000000       4.26085000      13.86587000      -0.02221500      -0.01123700      -0.01904400
C       -3.69000000       6.39127000      13.85895000      -0.00134800      -0.18451200       0.10941400
C        2.46000000       0.00000000      13.87995000       0.16817600      -0.09709700      -0.04093900
C        1.23000000       2.13042000      13.87995000      -0.00137800       0.19657500      -0.04106500
C       -0.00000000       4.26085000      13.86777000       0.01120700      -0.02167700      -0.08986300
C       -1.23000000       6.39127000      13.86777000      -0.01452200       0.02291300      -0.08988400
C        4.92000000       0.00000000      13.86777000      -0.02710400       0.00112000      -0.08988400
C        3.69000000       2.13042000      13.85895000       0.15911900       0.09342300       0.10941400
C        2.46000000       4.26085000      13.86777000      -0.01394600      -0.02166200      -0.08994200
C        1.23000000       6.39127000      13.86537000      -0.00137700       0.00079500      -0.05163800
C        7.38000000       0.00000000      13.86777000       0.02437700       0.00113300      -0.08986300
C        6.15000000       2.13042000      13.86587000      -0.00137600       0.02485700      -0.01904400
C        4.92000000       4.26085000      13.86587000       0.01946100      -0.01123600      -0.01904100
C        3.69000000       6.39127000      13.86777000       0.01178700       0.02290900      -0.08994200
C       -0.00005000       1.42031000      13.87995000      -0.16815900       0.09708700      -0.04093300
C       -1.23005000       3.55073000      13.86777000       0.01452600      -0.02291300      -0.08988400
C       -2.46005000       5.68116000      13.86777000      -0.01122000       0.02166400      -0.08986200
C       -3.69005000       7.81158000      13.87996000       0.00136600      -0.19658400      -0.04107100
C        2.45995000       1.42031000      13.87996000       0.17093000       0.09710900      -0.04107100
C        1.22995000       3.55073000      13.85895000       0.00134200       0.18450100       0.10939500
C       -0.00005000       5.68116000      13.86587000       0.02220800       0.01124500      -0.01904900
C       -1.23005000       7.81158000      13.85895000       0.16187700      -0.09346000       0.10941500
C        4.91995000       1.42031000      13.86777000      -0.02437200      -0.00111600      -0.08986200
C        3.68995000       3.55073000      13.86777000      -0.01179100      -0.02290900      -0.08994500
C        2.45995000       5.68116000      13.86587000      -0.01946100       0.01123600      -0.01903500
C        1.22995000       7.81158000      13.86587000       0.00136600      -0.02485500      -0.01904900
C        7.37995000       1.42031000      13.86777000       0.02710600      -0.00112300      -0.08988400
C        6.14995000       3.55073000      13.86537000       0.00136700      -0.00078900      -0.05163800
C        4.91995000       5.68116000      13.86777000       0.01394400       0.02166600      -0.08994500
C        3.68995000       7.81158000      13.85895000      -0.15911200      -0.09341200       0.10939500
C        0.00000000       0.00000000      10.12005000      -0.17092800      -0.09709400       0.04106500
C        8.61000000       2.13042000      10.14105000      -0.16186400       0.09345200      -0.10938100
C       -2.46000000       4.26085000      10.13413000      -0.02221500      -0.01123700       0.01904400
C       -3.69000000       6.39127000      10.14105000      -0.00134800      -0.18451200      -0.10941400
C        2.46000000       0.00000000      10.12005000       0.16817600      -0.09709700       0.04093900
C        1.23000000       2.13042000      10.12005000      -0.00137800       0.19657500       0.04106500
C       -0.00000000       4.26085000      10.13223000       0.01120700      -0.02167700       0.08986300
C       -1.23000000       6.39127000      10.13223000      -0.01452200       0.02291300       0.08988400
C        4.92000000       0.00000000      10.13223000      -0.02710400       0.00112000       0.08988400
C        3.69000000       2.13042000      10.14105000       0.15911900       0.09342300      -0.10941400
C        2.46000000       4.26085000      10.13223000      -0.01394600      -0.02166200       0.08994200
C        1.23000000       6.39127000      10.13463000      -0.00137700       0.00079500       0.05163800
C        7.38000000       0.00000000      10.13223000       0.02437700       0.00113300       0.08986300
C        6.15000000       2.13042000      10.13413000      -0.00137600       0.02485700       0.01904400
C        4.92000000       4.26085000      10.13413000       0.01946100      -0.01123600       0.01904100
C        3.69000000       6.39127000      10.13223000       0.01178700       0.02290900       0.08994200
C       -0.00005000       1.42031000      10.12005000      -0.16815900       0.09708700       0.04093300
C       -1.23005000       3.55073000      10.13223000       0.01452600      -0.02291300       0.08988400
C       -2.46005000       5.68116000      10.13223000      -0.01122000       0.02166400       0.08986200
C       -3.69005000       7.81158000      10.12004000       0.00136600      -0.19658400       0.04107100
C        2.45995000       1.42031000      10.12004000       0.17093000       0.09710900       0.04107100
C        1.22995000       3.55073000      10.14105000       0.00134200       0.18450100      -0.10939500
C       -0.00005000       5.68116000      10.13413000       0.02220800       0.01124500       0.01904900
C       -1.23005000       7.81158000      10.14105000       0.16187700      -0.09346000      -0.10941500
C        4.91995000       1.42031000      10.13223000      -0.02437200      -0.00111600       0.08986200
C        3.68995000       3.55073000      10.13223000      -0.01179100      -0.02290900       0.08994500
C        2.45995000       5.68116000      10.13413000      -0.01946100       0.01123600       0.01903500
C        1.22995000       7.81158000      10.13413000       0.00136600      -0.02485500       0.01904900
C        7.37995000       1.42031000      10.13223000       0.02710600      -0.00112300       0.08988400
C        6.14995000       3.55073000      10.13463000       0.00136700      -0.00078900       0.05163800
C        4.91995000       5.68116000      10.13223000       0.01394400       0.02166600       0.08994500
C        3.68995000       7.81158000      10.14105000      -0.15911200      -0.09341200      -0.10939500
Li       1.23001000       0.71011000      12.00000000       0.00003000      -0.00001700      -0.00000000
65
Lattice="9.840000153 0.0 0.0 -4.920000076 8.521690105 0.0 0.0 0.0 24.0" Properties=species:S:1:pos:R:3:forces:R:3 stress="-0.004734758890822033 6.604140806097076e-05 -0.0 6.604140806097076e-05 -0.0046585001323219905 -0.0 -0.0 -0.0 0.005048575728162317" free_energy=-596.64785202 energy=-596.64568098 pbc="T T T"
C        0.00000000       0.00000000      13.88013000      -0.17104900      -0.09716400      -0.04238000
C        8.61000000       2.13042000      13.85825000      -0.16162100       0.09331200       0.10894800
C       -2.46000000       4.26085000      13.86510000      -0.02220800      -0.01123300      -0.02438200
C       -3.69000000       6.39127000      13.85825000      -0.00134700      -0.18423200       0.10897400
C        2.46000000       0.00000000      13.88013000       0.16829800      -0.09716700      -0.04225900
C        1.23000000       2.13042000      13.88013000      -0.00137800       0.19671400      -0.04238000
C       -0.00000000       4.26085000      13.86681000       0.01116900      -0.02164500      -0.08985900
C       -1.23000000       6.39127000      13.86681000      -0.01451300       0.02286300      -0.08987800
C        4.92000000       0.00000000      13.86681000      -0.02705600       0.00113700      -0.08987800
C        3.69000000       2.13042000      13.85825000       0.15887600       0.09328300       0.10897400