77
Lattice="10.722900391 0.0 0.0 -5.361450195 9.286304141 0.0 0.0 0.0 24.0" Properties=species:S:1:pos:R:3:forces:R:3 stress="-0.004131535758332793 2.9335092891651313e-06 -0.0 2.9335092891651313e-06 -0.004128652181116636 -0.0 -0.0 -0.0 -0.0006720108045655987" free_energy=-707.45542288 energy=-707.45248552 pbc="T T T"
C        0.00000000       0.00000000      13.67500000      -0.07113700      -0.17611700       0.02805400
C       -2.82184000       5.86504000      13.67500000       0.00132800       0.00095500       0.06866300
C       -3.10407000       8.30883000      13.67500000       0.02725200       0.02638500       0.07829000
C       -0.28223000       2.44378000      13.67500000      -0.28113000      -0.03206500       0.28230600
C       -0.56435000       4.88757000      13.67500000      -0.11564700       0.15014400       0.03870900
C       -0.84652000       7.33126000      13.67500000      -0.01522300      -0.00507800       0.07481600
C        1.97532000       1.46621000      13.67500000       0.16216400      -0.21400400       0.28101100
C        1.69309000       3.91000000      13.67500000       0.10789200       0.26462500       0.27791400
C        1.41087000       6.35378000      13.67500000       0.02789600      -0.01988300       0.08122900
C        1.12875000       8.79757000      13.67500000      -0.00171800      -0.00319900       0.06620000
C        4.23270000       0.48874000      13.67500000      -0.03043400      -0.01259100       0.07490400
C        3.95058000       2.93252000      13.67500000       0.18025900       0.02372100       0.04505200
C        3.66836000       5.37631000      13.67500000      -0.02798700       0.00707400       0.07421900
C        3.38613000       7.82009000      13.67500000       0.01771100      -0.01517700       0.07258300
C        6.20797000       1.95505000      13.67500000       0.00828700       0.01189000       0.08116900
C        5.92580000       4.39874000      13.67500000       0.00272500       0.01417900       0.08172400
C        5.64368000       6.84252000      13.67500000       0.00645700      -0.00181200       0.07200000
C        8.46552000       0.97748000      13.67500000      -0.00417900       0.02993500       0.07786600
C        8.18329000       3.42126000      13.67500000       0.01136200      -0.02878500       0.07420800
C       -4.51493000       8.14585000      13.67500000      -0.02578200       0.02402400       0.08124300
C       -1.97521000       4.72459000      13.67500000       0.03175000       0.00605000       0.07787500
C       -2.25744000       7.16838000      13.67500000       0.00656000       0.00298200       0.07257400
C        0.56440000       1.30333000      13.67500000      -0.11531900      -0.26021200       0.28479000
C        0.28217000       3.74712000      13.67500000      -0.16405400       0.22327400       0.28226000
C       -0.00005000       6.19090000      13.67500000      -0.01672200      -0.02633100       0.06988500
C       -0.28212000       8.63459000      13.67500000      -0.00662500       0.00097000       0.07201600
C        2.82178000       0.32586000      13.67500000       0.11551300      -0.15439300       0.03196400
C        2.53956000       2.76964000      13.67500000       0.28512700       0.02999900       0.27836600
C        2.25749000       5.21333000      13.67500000       0.07167700       0.18518700       0.03534200
C        1.97527000       7.65711000      13.67500000      -0.00444900       0.00875200       0.07315200
C        4.79710000       1.79207000      13.67500000      -0.01220800       0.02275600       0.08687700
C        4.51488000       4.23585000      13.67500000      -0.00909700      -0.03256200       0.08757300
C        4.23276000       6.67964000      13.67500000      -0.01374000       0.01156700       0.06807900
C        3.95053000       9.12342000      13.67500000       0.03225900      -0.00978800       0.08052900
C        7.05449000       0.81459000      13.67500000       0.00037500      -0.00504900       0.06906300
C        6.77237000       3.25838000      13.67500000       0.00339200      -0.01317800       0.08115700
C        6.49014000       5.70216000      13.67500000       0.00301500      -0.00592700       0.06661000
C        9.02981000       2.28081000      13.67500000      -0.18754300      -0.02934600       0.03195700
C        0.00000000       0.00000000      10.32500000      -0.07113700      -0.17611700      -0.02805400
C       -2.82184000       5.86504000      10.32500000       0.00132800       0.00095500      -0.06866300
C       -3.10407000       8.30883000      10.32500000       0.02725200       0.02638500      -0.07829000
C       -0.28223000       2.44378000      10.32500000      -0.28113000      -0.03206500      -0.28230600
C       -0.56435000       4.88757000      10.32500000      -0.11564700       0.15014400      -0.03870900
C       -0.84652000       7.33126000      10.32500000      -0.01522300      -0.00507800      -0.07481600
C        1.97532000       1.46621000      10.32500000       0.16216400      -0.21400400      -0.28101100
C        1.69309000       3.91000000      10.32500000       0.10789200       0.26462500      -0.27791400
C        1.41087000       6.35378000      10.32500000       0.02789600      -0.01988300      -0.08122900
C        1.12875000       8.79757000      10.32500000      -0.00171800      -0.00319900      -0.06620000
C        4.23270000       0.48874000      10.32500000      -0.03043400      -0.01259100      -0.07490400
C        3.95058000       2.93252000      10.32500000       0.18025900       0.02372100      -0.04505200
C        3.66836000       5.37631000      10.32500000      -0.02798700       0.00707400      -0.07421900
C        3.38613000       7.82009000      10.32500000       0.01771100      -0.01517700      -0.07258300
C        6.20797000       1.95505000      10.32500000       0.00828700       0.01189000      -0.08116900
C        5.92580000       4.39874000      10.32500000       0.00272500       0.01417900      -0.08172400
C        5.64368000       6.84252000      10.32500000       0.00645700      -0.00181200      -0.07200000
C        8.46552000       0.97748000      10.32500000      -0.00417900       0.02993500      -0.07786600
C        8.18329000       3.42126000      10.32500000       0.01136200      -0.02878500      -0.07420800
C       -4.51493000       8.14585000      10.32500000      -0.02578200       0.02402400      -0.08124300
C       -1.97521000       4.72459000      10.32500000       0.03175000       0.00605000      -0.07787500
C       -2.25744000       7.16838000      10.32500000       0.00656000       0.00298200      -0.07257400
C        0.56440000       1.30333000      10.32500000      -0.11531900      -0.26021200      -0.28479000
C        0.28217000       3.74712000      10.32500000      -0.16405400       0.22327400      -0.28226000
C       -0.00005000       6.19090000      10.32500000      -0.01672200      -0.02633100      -0.06988500
C       -0.28212000       8.63459000      10.32500000      -0.00662500       0.00097000      -0.07201600
C        2.82178000       0.32586000      10.32500000       0.11551300      -0.15439300      -0.03196400
C        2.53956000       2.76964000      10.32500000       0.28512700       0.02999900      -0.27836600
C        2.25749000       5.21333000      10.32500000       0.07167700       0.18518700      -0.03534200
C        1.97527000       7.65711000      10.32500000      -0.00444900       0.00875200      -0.07315200
C        4.79710000       1.79207000      10.32500000      -0.01220800       0.02275600      -0.08687700
C        4.51488000       4.23585000      10.32500000      -0.00909700      -0.03256200      -0.08757300
C        4.23276000       6.67964000      10.32500000      -0.01374000       0.01156700      -0.06807900
C        3.95053000       9.12342000      10.32500000       0.03225900      -0.00978800      -0.08052900
C        7.05449000       0.81459000      10.32500000       0.00037500      -0.00504900      -0.06906300
C        6.77237000       3.25838000      10.32500000       0.00339200      -0.01317800      -0.08115700
C        6.49014000       5.70216000      10.32500000       0.00301500      -0.00592700      -0.06661000
C        9.02981000       2.28081000      10.32500000      -0.18754300      -0.02934600      -0.03195700
Li       1.12869000       2.60667000      12.00000000      -0.00000900       0.00205200       0.00000000
77
Lattice="10.722900391 0.0 0.0 -5.361450195 9.286304141 0.0 0.0 0.0 24.0" Properties=species:S:1:pos:R:3:forces:R:3 stress="-0.004289577010909283 1.1671622065401691e-06 -0.0 1.1671622065401691e-06 -0.0043097308438767605 -0.0 -0.0 -0.0 -0.0003272672895065628" free_energy=-707.49784033 energy=-707.4949021 pbc="T T T"
C       -0.00343000      -0.00850000      13.67635000       0.01758800       0.07805600       0.10136500
C       -2.82177000       5.86509000      13.67831000      -0.00329500      -0.02467200       0.07050000
C       -3.10275000       8.31010000      13.67878000      -0.08121800      -0.24419400       0.05438400
C       -0.29579000       2.44224000      13.68862000       0.45328800       0.03668200       0.20742900
C       -0.56993000       4.89481000      13.67687000       0.04904000      -0.05004300       0.09415100
C       -0.84725000       7.33101000      13.67861000       0.06960600       0.02075800       0.06242300
C        1.98314000       1.45589000      13.68856000      -0.25376600       0.32824400       0.22992700
C        1.69830000       3.92276000      13.68841000      -0.17138100      -0.42306400       0.21779200
C        1.41221000       6.35282000      13.67892000      -0.14348200       0.25093700       0.05273000
C        1.12866000       8.79741000      13.67819000      -0.01395900       0.00565800       0.07193000
C        4.23124000       0.48813000      13.67861000       0.26682000      -0.01189200       0.05822100
C        3.95928000       2.93367000      13.67717000      -0.05252200      -0.01994600       0.09452300
C        3.66701000       5.37665000      13.67858000       0.22997300       0.06975800       0.05830900
C        3.38699000       7.81936000      13.67850000      -0.07807700       0.06444600       0.06632800
C        6.20837000       1.95562000      13.67892000      -0.02801500      -0.07316100       0.07254800
C        5.92593000       4.39942000      13.67894000      -0.00896200      -0.03058500       0.07302300
C        5.64399000       6.84243000      13.67847000       0.00033200       0.00672400       0.06617000
C        8.46531000       0.97892000      13.67876000      -0.11624500      -0.24582300       0.05750300
C        8.18384000       3.41987000      13.67858000      -0.17050800       0.17121800       0.05782400
C       -4.51617000       8.14701000      13.67892000       0.14020800      -0.24698300       0.05204200
C       -1.97368000       4.72488000      13.67876000      -0.27131300       0.01629800       0.05265200
C       -2.25712000       7.16852000      13.67850000      -0.06083600      -0.02697600       0.06762600
C        0.55884000       1.29078000      13.68874000       0.19404800       0.42947100       0.21199900
C        0.27426000       3.75789000      13.68862000       0.24731700      -0.36583200       0.22328700
C       -0.00086000       6.18963000      13.67837000       0.06066800       0.25416300       0.06227700
C       -0.28244000       8.63464000      13.67847000       0.01416900      -0.00095600       0.06814400
C        2.82736000       0.31841000      13.67654000      -0.04795400       0.07922400       0.10029400
C        2.55331000       2.77109000      13.68843000      -0.47603700      -0.02811000       0.21675400
C        2.26095000       5.22227000      13.67670000      -0.00940700      -0.08132700       0.09696200
C        1.97505000       7.65754000      13.67853000       0.00193500      -0.01747900       0.06776600
C        4.79651000       1.79317000      13.67919000       0.17934900      -0.15691100       0.06151700
C        4.51444000       4.23428000      13.67922000       0.14827900       0.24465300       0.06022000
C        4.23209000       6.68020000      13.67828000       0.08808000      -0.06810100       0.06713300
C        3.95209000       9.12295000      13.67888000      -0.24435300      -0.06171800       0.05175800
C        7.05451000       0.81435000      13.67833000      -0.00567400      -0.00775300       0.07225800
C        6.77253000       3.25774000      13.67892000       0.00518100       0.07701400       0.07259300
C        6.49029000       5.70188000      13.67821000      -0.00270300       0.02955100       0.07290800
C        9.02076000       2.27939000      13.67654000       0.07444900       0.02178000       0.09669400
C       -0.00343000      -0.00850000      10.32365000       0.01758800       0.07805600      -0.10136500
C       -2.82177000       5.86509000      10.32169000      -0.00329500      -0.02467200      -0.07050000
C       -3.10275000       8.31010000      10.32122000      -0.08121800      -0.24419400      -0.05438400
C       -0.29579000       2.44224000      10.31138000       0.45328800       0.03668200      -0.20742900
C       -0.56993000       4.89481000      10.32313000       0.04904000      -0.05004300      -0.09415100
C       -0.84725000       7.33101000      10.32139000       0.06960600       0.02075800      -0.06242300
C        1.98314000       1.45589000      10.31144000      -0.25376600       0.32824400      -0.22992700
C        1.69830000       3.92276000      10.31159000      -0.17138100      -0.42306400      -0.21779200
C        1.41221000       6.35282000      10.32108000      -0.14348200       0.25093700      -0.05273000
C        1.12866000       8.79741000      10.32181000      -0.01395900       0.00565800      -0.07193000
C        4.23124000       0.48813000      10.32139000       0.26682000      -0.01189200      -0.05822100
C        3.95928000       2.93367000      10.32283000      -0.05252200      -0.01994600      -0.09452300
C        3.66701000       5.37665000      10.32142000       0.22997300       0.06975800      -0.05830900
C        3.38699000       7.81936000      10.32150000      -0.07807700       0.06444600      -0.06632800
C        6.20837000       1.95562000      10.32108000      -0.02801500      -0.07316100      -0.07254800
C        5.92593000       4.39942000      10.32106000      -0.00896200      -0.03058500      -0.07302300
C        5.64399000       6.84243000      10.32153000       0.00033200       0.00672400      -0.06617000
C        8.46531000       0.97892000      10.32124000      -0.11624500      -0.24582300      -0.05750300
C        8.18384000       3.41987000      10.32142000      -0.17050800       0.17121800      -0.05782400
C       -4.51617000       8.14701000      10.32108000       0.14020800      -0.24698300      -0.05204200
C       -1.97368000       4.72488000      10.32124000      -0.27131300       0.01629800      -0.05265200
C       -2.25712000       7.16852000      10.32150000      -0.06083600      -0.02697600      -0.06762600
C        0.55884000       1.29078000      10.31126000       0.19404800       0.42947100      -0.21199900
C        0.27426000       3.75789000      10.31138000       0.24731700      -0.36583200      -0.22328700
C       -0.00086000       6.18963000      10.32163000       0.06066800       0.25416300      -0.06227700
C       -0.28244000       8.63464000      10.32153000       0.01416900      -0.00095600      -0.06814400
C        2.82736000       0.31841000      10.32346000      -0.04795400       0.07922400      -0.10029400
C        2.55331000       2.77109000      10.31157000      -0.47603700      -0.02811000      -0.21675400
C        2.26095000       5.22227000      10.32330000      -0.00940700      -0.08132700      -0.09696200
C        1.97505000       7.65754000      10.32147000       0.00193500      -0.01747900      -0.06776600
C        4.79651000       1.79317000      10.32081000       0.17934900      -0.15691100      -0.06151700
C        4.51444000       4.23428000      10.32078000       0.14827900       0.24465300      -0.06022000
C        4.23209000       6.68020000      10.32172000       0.08808000      -0.06810100      -0.06713300
C        3.95209000       9.12295000      10.32112000      -0.24435300      -0.06171800      -0.05175800
C        7.05451000       0.81435000      10.32167000      -0.00567400      -0.00775300      -0.07225800
C        6.77253000       3.25774000      10.32108000       0.00518100       0.07701400      -0.07259300
C        6.49029000       5.70188000      10.32179000      -0.00270300       0.02955100      -0.07290800
C        9.02076000       2.27939000      10.32346000       0.07444900       0.02178000      -0.09669400
Li       1.12869000       2.60676000      12.00000000      -0.00124200       0.00177900       0.00000000
77
Lattice="10.722900391 0.0 0.0 -5.361450195 9.286304141 0.0 0.0 0.0 24.0" Properties=species:S:1:pos:R:3:forces:R:3 stress="-0.004234814009838783 8.057788281515286e-06 -0.0 8.057788281515286e-06 -0.0042455743715718065 -0.0 -0.0 -0.0 -0.00041555967760130734" free_energy=-707.50321685 energy=-707.50027857 pbc="T T T"
C       -0.00256000      -0.00634000      13.67601000      -0.00088000       0.02073300       0.08274700
C       -2.82179000       5.86508000      13.67747000      -0.00152700      -0.01910900       0.06926300
C       -3.10308000       8.30978000      13.67782000      -0.05288400      -0.17464100       0.05932200
C       -0.29235000       2.44263000      13.68517000       0.26218900       0.03042500       0.22666800
C       -0.56851000       4.89298000      13.67639000       0.00497300       0.00285600       0.08193800
C       -0.84707000       7.33108000      13.67770000       0.04936900       0.01411000       0.06266600
C        1.98116000       1.45851000      13.68512000      -0.14681300       0.18985200       0.24406200
C        1.69698000       3.91953000      13.68501000      -0.10824400      -0.24638300       0.23619100
C        1.41187000       6.35307000      13.67793000      -0.10096900       0.18046600       0.05733600
C        1.12868000       8.79745000      13.67738000      -0.01116200       0.00245200       0.06972300
C        4.23161000       0.48828000      13.67770000       0.19088600      -0.01343900       0.06293600
C        3.95708000       2.93338000      13.67662000       0.00800000      -0.00634000       0.08393800
C        3.66735000       5.37656000      13.67767000       0.16258900       0.05141300       0.06302600
C        3.38677000       7.81954000      13.67761000      -0.05051300       0.04549400       0.06785100
C        6.20827000       1.95547000      13.67792000      -0.01923900      -0.05327300       0.07208500
C        5.92589000       4.39925000      13.67794000      -0.00484900      -0.02094800       0.07244900
C        5.64391000       6.84246000      13.67759000       0.00287500       0.00398700       0.06752300
C        8.46536000       0.97855000      13.67780000      -0.08860200      -0.17520100       0.06155400
C        8.18370000       3.42022000      13.67767000      -0.12354300       0.12203200       0.06055700
C       -4.51586000       8.14672000      13.67793000       0.09933800      -0.17946200       0.05869900
C       -1.97407000       4.72481000      13.67781000      -0.19350100       0.01265500       0.06148600
C       -2.25720000       7.16848000      13.67761000      -0.04529900      -0.02093000       0.06683800
C        0.56025000       1.29396000      13.68526000       0.11846500       0.25637100       0.22576000
C        0.27626000       3.75516000      13.68517000       0.14814200      -0.22184100       0.23643900
C       -0.00066000       6.18995000      13.67752000       0.03790500       0.17784000       0.06499500
C       -0.28236000       8.63463000      13.67759000       0.00910300      -0.00116800       0.06747300
C        2.82595000       0.32029000      13.67615000      -0.00515400       0.02317400       0.08424800
C        2.54983000       2.77072000      13.68503000      -0.28234800      -0.01556000       0.23600600
C        2.26007000       5.22000000      13.67627000       0.00911000      -0.01452000       0.07815100
C        1.97511000       7.65743000      13.67764000      -0.00011700      -0.01097900       0.06868100
C        4.79666000       1.79289000      13.67813000       0.12931300      -0.11149100       0.06532900
C        4.51455000       4.23468000      13.67815000       0.10687900       0.17015500       0.06576500
C        4.23226000       6.68006000      13.67745000       0.06270700      -0.04925200       0.06753800
C        3.95169000       9.12307000      13.67790000      -0.17395200      -0.04819000       0.05626900
C        7.05450000       0.81441000      13.67749000      -0.00404500      -0.00720700       0.07067700
C        6.77249000       3.25790000      13.67792000       0.00564300       0.05248200       0.07211500
C        6.49025000       5.70195000      13.67740000      -0.00304300       0.02130200       0.07037500
C        9.02305000       2.27975000      13.67615000       0.00963000       0.01154700       0.08055700
C       -0.00256000      -0.00634000      10.32399000      -0.00088000       0.02073300      -0.08274700
C       -2.82179000       5.86508000      10.32253000      -0.00152700      -0.01910900      -0.06926300
C       -3.10308000       8.30978000      10.32218000      -0.05288400      -0.17464100      -0.05932200
C       -0.29235000       2.44263000      10.31483000       0.26218900       0.03042500      -0.22666800
C       -0.56851000       4.89298000      10.32361000       0.00497300       0.00285600      -0.08193800
C       -0.84707000       7.33108000      10.32230000       0.04936900       0.01411000      -0.06266600
C        1.98116000       1.45851000      10.31488000      -0.14681300       0.18985200      -0.24406200
C        1.69698000       3.91953000      10.31499000      -0.10824400      -0.24638300      -0.23619100
C        1.41187000       6.35307000      10.32207000      -0.10096900       0.18046600      -0.05733600
C        1.12868000       8.79745000      10.32262000      -0.01116200       0.00245200      -0.06972300
C        4.23161000       0.48828000      10.32230000       0.19088600      -0.01343900      -0.06293600
C        3.95708000       2.93338000      10.32338000       0.00800000      -0.00634000      -0.08393800
C        3.66735000       5.37656000      10.32233000       0.16258900       0.05141300      -0.06302600
C        3.38677000       7.81954000      10.32239000      -0.05051300       0.04549400      -0.06785100
C        6.20827000       1.95547000      10.32208000      -0.01923900      -0.05327300      -0.07208500
C        5.92589000       4.39925000      10.32206000      -0.00484900      -0.02094800      -0.07244900
C        5.64391000       6.84246000      10.32241000       0.00287500       0.00398700      -0.06752300
C        8.46536000       0.97855000      10.32220000      -0.08860200      -0.17520100      -0.06155400
C        8.18370000       3.42022000      10.32233000      -0.12354300       0.12203200      -0.06055700
C       -4.51586000       8.14672000      10.32207000       0.09933800      -0.17946200      -0.05869900
C       -1.97407000       4.72481000      10.32219000      -0.19350100       0.01265500      -0.06148600
C       -2.25720000       7.16848000      10.32239000      -0.04529900      -0.02093000      -0.06683800
C        0.56025000       1.29396000      10.31474000       0.11846500       0.25637100      -0.22576000
C        0.27626000       3.75516000      10.31483000       0.14814200      -0.22184100      -0.23643900
C       -0.00066000       6.18995000      10.32248000       0.03790500       0.17784000      -0.06499500
C       -0.28236000       8.63463000      10.32241000       0.00910300      -0.00116800      -0.06747300
C        2.82595000       0.32029000      10.32385000      -0.00515400       0.02317400      -0.08424800
C        2.54983000       2.77072000      10.31497000      -0.28234800      -0.01556000      -0.23600600
C        2.26007000       5.22000000      10.32373000       0.00911000      -0.01452000      -0.07815100
C        1.97511000       7.65743000      10.32236000      -0.00011700      -0.01097900      -0.06868100
C        4.79666000       1.79289000      10.32187000       0.12931300      -0.11149100      -0.06532900
C        4.51455000       4.23468000      10.32185000       0.10687900       0.17015500      -0.06576500
C        4.23226000       6.68006000      10.32255000       0.06270700      -0.04925200      -0.06753800
C        3.95169000       9.12307000      10.32210000      -0.17395200      -0.04819000      -0.05626900
C        7.05450000       0.81441000      10.32251000      -0.00404500      -0.00720700      -0.07067700
C        6.77249000       3.25790000      10.32208000       0.00564300       0.05248200      -0.07211500
C        6.49025000       5.70195000      10.32260000      -0.00304300       0.02130200      -0.07037500
C        9.02305000       2.27975000      10.32385000       0.00963000       0.01154700      -0.08055700
Li       1.12869000       2.60674000      12.00000000      -0.00086300       0.00116900      -0.00000000
77
Lattice="10.722900391 0.0 0.0 -5.361450195 9.286304141 0.0 0.0 0.0 24.0" Properties=species:S:1:pos:R:3:forces:R:3 stress="-0.004226288108372827 8.113961863648234e-06 -0.0 8.113961863648234e-06 -0.004254431073021435 -0.0 -0.0 -0.0 -0.0001440914796801409" free_energy=-707.55019295 energy=-707.54726759 pbc="T T T"
C       -0.00419000      -0.00986000      13.67849000       0.07595500       0.13525400       0.12685900
C       -2.82179000       5.86467000      13.68056000      -0.08849300       0.03391700       0.06593800
C       -3.10365000       8.30649000      13.68091000       0.03780700      -0.03746500       0.05464000
C       -0.29287000       2.44258000      13.69659000       0.17488000       0.01135900       0.18793100
C       -0.57101000       4.89643000      13.67909000       0.08946000      -0.13729000       0.11899400
C       -0.84631000       7.33127000      13.68078000      -0.05653900       0.08139500       0.06302500
C        1.98155000       1.45790000      13.69690000      -0.09103100       0.13669400       0.19075200
C        1.69701000       3.92002000      13.69654000      -0.05928800      -0.16223700       0.19483700
C        1.41025000       6.35663000      13.68104000       0.04719600       0.02575500       0.04972100
C        1.12840000       8.79743000      13.68043000       0.00015100       0.00656000       0.06942900
C        4.23517000       0.48770000      13.68079000       0.00888500      -0.03923500       0.05763500
C        3.96133000       2.93377000      13.67951000      -0.16499000       0.00196600       0.11761400
C        3.67034000       5.37786000      13.68075000       0.01625200       0.05278800       0.05507700
C        3.38604000       7.82021000      13.68076000      -0.04292700      -0.10330800       0.06314500
C        6.20803000       1.95456000      13.68136000       0.08739100       0.01065400       0.07085300
C        5.92585000       4.39910000      13.68140000       0.06764600       0.05328800       0.07145000
C        5.64412000       6.84250000      13.68072000       0.01398400      -0.08853300       0.06259000
C        8.46330000       0.97533000      13.68093000      -0.04634400       0.02646400       0.04833900
C        8.18121000       3.42229000      13.68070000      -0.05801700      -0.02580900       0.05573600
C       -4.51423000       8.14327000      13.68107000      -0.04509400      -0.02368700       0.05143100
C       -1.97766000       4.72523000      13.68093000      -0.00360900       0.05736500       0.05417700
C       -2.25806000       7.16809000      13.68074000       0.06905000      -0.07466700       0.06559500
C        0.56028000       1.29379000      13.69671000       0.06631200       0.15288500       0.19167100
C        0.27586000       3.75526000      13.69680000       0.07845700      -0.12072000       0.19211500
C       -0.00019000       6.19331000      13.68054000      -0.04669200       0.03651800       0.06184300
C       -0.28231000       8.63462000      13.68072000       0.08171600      -0.02879700       0.06210800
C        2.82844000       0.31733000      13.67875000      -0.09358700       0.11961000       0.12707000
C        2.54998000       2.77105000      13.69656000      -0.17006700      -0.01744200       0.19830100
C        2.26190000       5.22386000      13.67881000      -0.07884200      -0.13950100       0.11825200
C        1.97500000       7.65738000      13.68081000      -0.00632600       0.08588500       0.06424800
C        4.79927000       1.79092000      13.68154000       0.05562800       0.01608900       0.05635100
C        4.51672000       4.23773000      13.68159000       0.06199700      -0.01691100       0.06149300
C        4.23335000       6.67922000      13.68049000       0.03232200       0.09973300       0.06586500
C        3.94855000       9.12178000      13.68097000      -0.01320400      -0.04728400       0.05258800
C        7.05442000       0.81414000      13.68062000      -0.05627100      -0.05341300       0.06723300
C        6.77269000       3.25877000      13.68136000      -0.10343700      -0.01831900       0.07048800
C        6.49025000       5.70229000      13.68047000       0.00632800      -0.01040000       0.07152400
C        9.01903000       2.27935000      13.67867000       0.15300800       0.00002900       0.12245400
C       -0.00419000      -0.00986000      10.32151000       0.07595500       0.13525400      -0.12685900
C       -2.82179000       5.86467000      10.31944000      -0.08849300       0.03391700      -0.06593800
C       -3.10365000       8.30649000      10.31909000       0.03780700      -0.03746500      -0.05464000
C       -0.29287000       2.44258000      10.30341000       0.17488000       0.01135900      -0.18793100