77
Lattice="10.722900391 0.0 0.0 -5.361450195 9.286304141 0.0 0.0 0.0 24.0" Properties=species:S:1:pos:R:3:forces:R:3 stress="-0.004506719113398762 3.239343236333411e-06 -2.559018741612136e-07 3.239343236333411e-06 -0.0044994727213036115 -5.367697848259602e-07 -2.559018741612136e-07 -5.367697848259602e-07 -0.0005739254886523433" free_energy=-707.15207792 energy=-707.14993476 pbc="T T T"
C        0.00000000       0.00000000      13.67500000      -0.12523800      -0.30221400       0.18004000
C       -2.82184000       5.86504000      13.67500000      -0.00696000      -0.01527600       0.01463800
C       -3.10407000       8.30883000      13.67500000       0.05563600      -0.06615000       0.03770700
C       -0.28223000       2.44378000      13.67500000      -0.20141600       0.26190800       0.18872000
C       -0.56435000       4.88757000      13.67500000      -0.01909800      -0.01693400       0.02374500
C       -0.84652000       7.33126000      13.67500000       0.01012900       0.00957100       0.02415600
C        1.97532000       1.46621000      13.67500000       0.31917600       0.05451100       0.18743800
C        1.69309000       3.91000000      13.67500000       0.03286300       0.08180400       0.03326300
C        1.41087000       6.35378000      13.67500000      -0.01136700       0.00822100       0.02414400
C        1.12875000       8.79757000      13.67500000      -0.00106500      -0.01761000       0.01743100
C        4.23270000       0.48874000      13.67500000      -0.00230700       0.02639300       0.01742700
C        3.95058000       2.93252000      13.67500000       0.00423400      -0.01796300       0.03139000
C        3.66836000       5.37631000      13.67500000       0.02253500      -0.00148900       0.01505900
C        3.38613000       7.82009000      13.67500000       0.03017700      -0.01731400       0.02150000
C        6.20797000       1.95505000      13.67500000       0.00046400       0.01638600       0.02770500
C        5.92580000       4.39874000      13.67500000       0.00018600       0.01032500       0.02909800
C        5.64368000       6.84252000      13.67500000      -0.01527300      -0.00151900       0.02169400
C        8.46552000       0.97748000      13.67500000      -0.09322400      -0.01056500       0.03661800
C        8.18329000       3.42126000      13.67500000       0.00725700       0.01887500       0.01873900
C       -4.51493000       8.14585000      13.67500000       0.07452500      -0.12716900       0.04516300
C       -1.97521000       4.72459000      13.67500000      -0.00650400       0.00355300       0.04069400
C       -2.25744000       7.16838000      13.67500000      -0.00556900       0.00755200       0.03256900
C        0.56440000       1.30333000      13.67500000      -0.00432600      -0.00087200       3.81936100
C        0.28217000       3.74712000      13.67500000       0.03727400       0.15102600       0.04295000
C       -0.00005000       6.19090000      13.67500000       0.02579900       0.01401000       0.03142200
C       -0.28212000       8.63459000      13.67500000      -0.00805300      -0.02700900       0.03868100
C        2.82178000       0.32586000      13.67500000       0.11439000      -0.10872600       0.03846000
C        2.53956000       2.76964000      13.67500000       0.08103100       0.12551200       0.03886800
C        2.25749000       5.21333000      13.67500000      -0.01016100       0.00300900       0.03142300
C        1.97527000       7.65711000      13.67500000      -0.02838000       0.01595900       0.03982800
C        4.79710000       1.79207000      13.67500000       0.01001700      -0.00508600       0.05040900
C        4.51488000       4.23585000      13.67500000      -0.01131800       0.01793700       0.04884000
C        4.23276000       6.67964000      13.67500000      -0.00629700      -0.00682400       0.03733000
C        3.95053000       9.12342000      13.67500000      -0.14686400      -0.05307400       0.04520600
C        7.05449000       0.81459000      13.67500000       0.01242000      -0.00755900       0.02847800
C        6.77237000       3.25838000      13.67500000      -0.00664100      -0.01322400       0.04884000
C        6.49014000       5.70216000      13.67500000       0.02131200      -0.00782000       0.03618400
C        9.02981000       2.28081000      13.67500000      -0.14750900      -0.00163200       0.03837700
C        0.00000000       0.00000000      10.32500000      -0.11601600      -0.27094900      -0.20903100
C       -2.82184000       5.86504000      10.32500000       0.01697100       0.00197500      -0.01682500
C       -3.10407000       8.30883000      10.32500000       0.13810100      -0.16097100       0.01200300
C       -0.28223000       2.44378000      10.32500000      -0.18050500       0.23277800      -0.21669500
C       -0.56435000       4.88757000      10.32500000      -0.01654700      -0.03183100      -0.03555900
C       -0.84652000       7.33126000      10.32500000       0.00123700       0.00045300      -0.03109300
C        1.97532000       1.46621000      10.32500000       0.28629600       0.04182200      -0.21751600
C        1.69309000       3.91000000      10.32500000       0.07625400       0.19177400       0.01496800
C        1.41087000       6.35378000      10.32500000       0.00689100       0.01182700      -0.03108200
C        1.12875000       8.79757000      10.32500000      -0.00775500      -0.00616100      -0.01843300
C        4.23270000       0.48874000      10.32500000      -0.00863500       0.02825300      -0.02251000
C        3.95058000       2.93252000      10.32500000      -0.00590800      -0.03250100      -0.03017100
C        3.66836000       5.37631000      10.32500000      -0.00728700       0.00862800      -0.01642500
C        3.38613000       7.82009000      10.32500000       0.03350100      -0.01516100      -0.02586600
C        6.20797000       1.95505000      10.32500000      -0.00505900      -0.01816900      -0.02314100
C        5.92580000       4.39874000      10.32500000      -0.00203900       0.00046700      -0.02221600
C        5.64368000       6.84252000      10.32500000      -0.02303500       0.01833200      -0.02794300
C        8.46552000       0.97748000      10.32500000      -0.21449800      -0.03195800       0.01087300
C        8.18329000       3.42126000      10.32500000       0.02317300       0.01079200      -0.02346100
C       -3.66836000       7.00549000      10.32500000       0.01972600       0.03215700      -0.03808100
C       -1.12869000       3.58414000      10.32500000      -0.12174300       0.15583300       0.00005400
C       -1.41092000       6.02793000      10.32500000      -0.01808200      -0.00780200      -0.04520800
C       -1.69304000       8.47171000      10.32500000      -0.03859100      -0.00992300      -0.03935200
C        1.41092000       0.16288000      10.32500000       0.16914400      -0.22196500      -0.21919700
C        1.12869000       2.60667000      10.32500000       0.11184800       0.25760200      -0.21209000
C        0.84657000       5.05045000      10.32500000       0.03126200      -0.02659500      -0.05203100
C        0.56435000       7.49423000      10.32500000       0.00174200       0.00587200      -0.04580400
C        3.38618000       1.62919000      10.32500000       0.19167300       0.02330600      -0.00399100
C        3.10396000       4.07297000      10.32500000      -0.03632600      -0.00403900      -0.04142700
C        2.82189000       6.51666000      10.32500000       0.00695500      -0.00582000      -0.03256300
C        2.53967000       8.96045000      10.32500000       0.01056400       0.04022700      -0.03895900
C        5.64357000       0.65171000      10.32500000       0.01311200       0.01409800      -0.03548900
C        5.36150000       3.09540000      10.32500000      -0.00081200       0.00713400      -0.02996300
C        5.07928000       5.53919000      10.32500000      -0.00187300      -0.00155500      -0.03837100
C        4.79705000       7.98297000      10.32500000      -0.06612500      -0.17680100      -0.00624700
C        7.61889000       2.11793000      10.32500000       0.02148600      -0.02946100      -0.04259300
C        7.33666000       4.56171000      10.32500000      -0.00453400       0.00580600      -0.03722300
C        9.87638000       1.14045000      10.32500000      -0.28252600      -0.03759800      -0.21937200
Li       0.56440000       1.30333000      12.00000000      -0.00389700      -0.00039800      -3.37556700
77
Lattice="10.722900391 0.0 0.0 -5.361450195 9.286304141 0.0 0.0 0.0 24.0" Properties=species:S:1:pos:R:3:forces:R:3 stress="-0.004746430512887434 -2.683848924129801e-07 -2.059698011541475e-06 -2.683848924129801e-07 -0.004744245984693375 -1.0935123988547468e-05 -2.059698011541475e-06 -1.0935123988547468e-05 0.0014652441993741017" free_energy=-707.47891434 energy=-707.47677132 pbc="T T T"
C       -0.00604000      -0.01458000      13.68369000       0.28707900       0.69926200       1.04670300
C       -2.82217000       5.86431000      13.67571000       0.02975200       0.03870500       0.04431500
C       -3.10138000       8.30564000      13.67682000      -0.01542200       0.03635100       0.09828500
C       -0.29194000       2.45642000      13.68410000       0.46826300      -0.60966000       1.03596800
C       -0.56527000       4.88675000      13.67615000       0.03642100       0.26466000      -0.05480100
C       -0.84603000       7.33172000      13.67617000      -0.00493800      -0.03437400       0.03569600
C        1.99072000       1.46884000      13.68404000      -0.72612600      -0.12896200       1.03649200
C        1.69468000       3.91394000      13.67660000      -0.01012900      -0.01935700       0.10171800
C        1.41032000       6.35418000      13.67616000       0.01892700       0.02417100       0.03026000
C        1.12869000       8.79672000      13.67584000      -0.04202600       0.02253100       0.03533100
C        4.23259000       0.49001000      13.67584000       0.20133400      -0.17246500      -0.05281700
C        3.95079000       2.93166000      13.67651000       0.14761000       0.17494900      -0.05383800
C        3.66944000       5.37623000      13.67573000      -0.08046700       0.01147100       0.04238400
C        3.38759000       7.81925000      13.67604000      -0.27137700      -0.08851300      -0.05465100
C        6.20799000       1.95584000      13.67634000       0.00808600      -0.05653500       0.04660000
C        5.92581000       4.39923000      13.67640000      -0.00318700      -0.03094000       0.05331000
C        5.64294000       6.84245000      13.67605000       0.09309200      -0.19484800      -0.05589900
C        8.46102000       0.97697000      13.67677000       0.05140100      -0.02254100       0.09107900
C        8.18364000       3.42217000      13.67590000      -0.20954300       0.01055200      -0.05561400
C       -4.51134000       8.13972000      13.67718000      -0.10923900      -0.01429200       0.00230300
C       -1.97553000       4.72476000      13.67696000       0.00977900      -0.01838700       0.03436300
C       -2.25771000       7.16874000      13.67657000       0.08652900      -0.13705500       0.02629700
C        0.56419000       1.30329000      13.85926000       0.00998500       0.00207800      -1.65332900
C        0.28397000       3.75440000      13.67707000      -0.10373100      -0.06571000       0.00567100
C        0.00119000       6.19158000      13.67652000      -0.10300800      -0.02089400       0.01817500
C       -0.28251000       8.63329000      13.67687000       0.03832800       0.08714400       0.01299500
C        2.82730000       0.32061000      13.67686000      -0.00705800       0.14585000       0.00637100
C        2.54347000       2.77570000      13.67688000       0.04170400      -0.07788300       0.00502700
C        2.25700000       5.21348000      13.67652000       0.09200700       0.11988000       0.02456200
C        1.97390000       7.65788000      13.67692000       0.07744900      -0.06670500       0.01474100
C        4.79759000       1.79183000      13.67743000      -0.01760000       0.03427600       0.03820500
C        4.51433000       4.23672000      13.67736000       0.07835600      -0.04061500       0.01699100
C        4.23245000       6.67931000      13.67680000       0.04505200      -0.00004900       0.03537400
C        3.94345000       9.12086000      13.67718000       0.08951500      -0.04636300       0.00376100
C        7.05509000       0.81423000      13.67637000      -0.17303200       0.00262700       0.02898100
C        6.77205000       3.25774000      13.67736000      -0.00814200       0.08355100       0.01760900
C        6.49117000       5.70178000      13.67675000      -0.07328400      -0.01049400       0.01548800
C        9.02269000       2.28073000      13.67685000       0.05427400       0.09994300       0.00314200
C       -0.00560000      -0.01307000      10.31492000       0.14670700       0.32514300      -0.32155700
C       -2.82102000       5.86514000      10.32419000      -0.09237100      -0.01176200      -0.03389300
C       -3.09740000       8.30106000      10.32558000      -0.09339500       0.07322600      -0.05287500
C       -0.29093000       2.45501000      10.31455000       0.21340700      -0.28494900      -0.30910900
C       -0.56514000       4.88603000      10.32328000       0.05467100       0.25941200      -0.02532500
C       -0.84646000       7.33128000      10.32350000      -0.00371900       0.01196500      -0.03716400
C        1.98913000       1.46823000      10.31451000      -0.32694800      -0.05362000      -0.31558600
C        1.69677000       3.91925000      10.32572000      -0.03021600      -0.08753600      -0.04804100
C        1.41120000       6.35435000      10.32350000      -0.03637900      -0.02333900      -0.03659400
C        1.12837000       8.79727000      10.32411000       0.03700400       0.00633600      -0.03544000
C        4.23229000       0.49010000      10.32391000       0.18752800      -0.17125600      -0.01996500
C        3.95030000       2.93095000      10.32354000       0.13775100       0.23323500      -0.01677600
C        3.66801000       5.37672000      10.32421000       0.03392400      -0.05981400      -0.03216500
C        3.38775000       7.81936000      10.32375000      -0.23244600      -0.04040900      -0.01827100
C        6.20773000       1.95417000      10.32388000       0.03563000       0.09054600      -0.03156700
C        5.92570000       4.39876000      10.32393000      -0.00138600       0.00949000      -0.03333700
C        5.64257000       6.84340000      10.32365000       0.14263400      -0.22913000      -0.02470500
C        8.45517000       0.97593000      10.32552000       0.12878700       0.02642800      -0.04125500
C        8.18441000       3.42178000      10.32387000      -0.26375300       0.01629100      -0.02371300
C       -3.66741000       7.00705000      10.32316000      -0.04831800      -0.27016900      -0.01429500
C       -1.13457000       3.59166000      10.32500000       0.03346400      -0.03638300      -0.04454300
C       -1.41179000       6.02755000      10.32282000       0.09484300       0.02424200      -0.02475200
C       -1.69490000       8.47123000      10.32310000       0.31676500      -0.00837300      -0.01534400
C        1.41908000       0.15217000      10.31443000      -0.16172800       0.22112500      -0.30423900
C        1.13409000       2.61909000      10.31477000      -0.12983600      -0.26063200      -0.31713100
C        0.84808000       5.04917000      10.32249000      -0.14134600       0.27170200      -0.01791300
C        0.56443000       7.49452000      10.32279000      -0.00747600      -0.01560500      -0.02606400
C        3.39543000       1.63031000      10.32481000      -0.05376500      -0.01974200      -0.04202800
C        3.10221000       4.07278000      10.32300000       0.25352600       0.09742500      -0.00986400
C        2.82223000       6.51638000      10.32343000      -0.03525000       0.04181000      -0.02392800
C        2.54017000       8.96239000      10.32312000      -0.17342600      -0.28817900      -0.01290400
C        5.64420000       0.65239000      10.32329000      -0.04356200      -0.07990400      -0.01939600
C        5.36146000       3.09575000      10.32355000      -0.00796700      -0.00633900      -0.02686000
C        5.07919000       5.53911000      10.32315000       0.01442500       0.00546000      -0.02288700
C        4.79386000       7.97444000      10.32470000      -0.00695400       0.02707800      -0.04010100
C        7.61993000       2.11651000      10.32295000      -0.22728300       0.18537700      -0.01156100
C        7.33644000       4.56199000      10.32320000      -0.00628400      -0.02334800      -0.02096900
C        9.86275000       1.13864000      10.31442000       0.28319300       0.04272200      -0.31104200
Li       0.56421000       1.30331000      11.83715000       0.00291500       0.00011500       0.73591400
77
Lattice="10.722900391 0.0 0.0 -5.361450195 9.286304141 0.0 0.0 0.0 24.0" Properties=species:S:1:pos:R:3:forces:R:3 stress="-0.004658593754958879 -8.912875031761292e-06 1.93486782902381e-07 -8.912875031761292e-06 -0.004651821717557295 -3.5576602017534576e-06 1.93486782902381e-07 -3.5576602017534576e-06 0.0009716094841171209" free_energy=-707.55704568 energy=-707.55490262 pbc="T T T"
C       -0.00399000      -0.00963000      13.68074000       0.14075400       0.33763500       0.73839600
C       -2.82206000       5.86456000      13.67547000       0.01907600       0.01827900       0.03355400
C       -3.10229000       8.30672000      13.67620000       0.00703600       0.00827400       0.07506100
C       -0.28865000       2.45213000      13.68101000       0.22969100      -0.30517300       0.72482700
C       -0.56495000       4.88703000      13.67576000       0.01932500       0.16897000      -0.02938400
C       -0.84620000       7.33156000      13.67577000      -0.00171400      -0.01982300       0.03097000
C        1.98549000       1.46795000      13.68097000      -0.35289500      -0.05594400       0.73753800
C        1.69414000       3.91261000      13.67606000       0.00129100       0.00583000       0.07996600
C        1.41050000       6.35404000      13.67577000       0.01102200       0.01769400       0.02942900
C        1.12871000       8.79700000      13.67556000      -0.02880100       0.01269000       0.02881300
C        4.23263000       0.48958000      13.67556000       0.13363700      -0.10856400      -0.02971900
C        3.95072000       2.93195000      13.67600000       0.09557600       0.10722100      -0.02527000
C        3.66908000       5.37626000      13.67548000      -0.04820400       0.00708000       0.03403000
C        3.38709000       7.81954000      13.67569000      -0.16773500      -0.05993500      -0.02816800
C        6.20798000       1.95557000      13.67588000       0.00748800      -0.03350500       0.04164700
C        5.92580000       4.39907000      13.67593000      -0.00316300      -0.01254900       0.04827900
C        5.64319000       6.84247000      13.67569000       0.05528600      -0.12824400      -0.03172300
C        8.46254000       0.97714000      13.67617000       0.00203000      -0.02166900       0.07691600
C        8.18352000       3.42186000      13.67560000      -0.13422600       0.01449500      -0.03019400
C       -4.51256000       8.14180000      13.67644000      -0.04448600      -0.05607500       0.01832000
C       -1.97542000       4.72471000      13.67630000       0.00308700      -0.01057700       0.03622900
C       -2.25762000       7.16862000      13.67604000       0.05611600      -0.08989900       0.03028200
C        0.56426000       1.30330000      13.79672000      -0.00154200       0.01560400      -0.19377800
C        0.28336000       3.75193000      13.67637000      -0.05244700       0.00975400       0.01503000
C        0.00077000       6.19135000      13.67600000      -0.05359900      -0.00879400       0.02329100
C       -0.28238000       8.63373000      13.67623000       0.02160600       0.05086400       0.02167800
C        2.82543000       0.32239000      13.67623000       0.04118000       0.05978000       0.01545600
C        2.54214000       2.77364000      13.67624000       0.05088900      -0.00705400       0.01605100
C        2.25717000       5.21343000      13.67600000       0.05717000       0.08570600       0.02855600
C        1.97436000       7.65762000      13.67627000       0.04187600      -0.04071300       0.02166000
C        4.79742000       1.79191000      13.67661000      -0.00961200       0.01644400       0.04092100
C        4.51452000       4.23643000      13.67656000       0.04980100      -0.02145700       0.02634800
C        4.23256000       6.67942000      13.67619000       0.02690600      -0.00305000       0.03830100
C        3.94585000       9.12173000      13.67644000       0.00390900      -0.04627800       0.01616400
C        7.05488000       0.81435000      13.67591000      -0.11139900      -0.00244500       0.02983000
C        6.77216000       3.25796000      13.67656000      -0.00539300       0.05146100       0.02889800
C        6.49082000       5.70191000      13.67615000      -0.04350700      -0.00702400       0.02158600
C        9.02511000       2.28076000      13.67622000      -0.01820700       0.06773400       0.01754700
C       -0.00370000      -0.00864000      10.31834000       0.06093600       0.13402600      -0.28506900
C       -2.82130000       5.86511000      10.32446000      -0.05085900      -0.00284900      -0.02810600
C       -3.09966000       8.30370000      10.32538000      -0.01510600      -0.00271800      -0.02569100
C       -0.28798000       2.45120000      10.31809000       0.08129500      -0.11582100      -0.26387900
C       -0.56487000       4.88655000      10.32387000       0.02972900       0.16031900      -0.03027300
C       -0.84648000       7.33127000      10.32401000      -0.00239000       0.00512300      -0.03804100
C        1.98444000       1.46755000      10.31807000      -0.13547900      -0.01749400      -0.28019200
C        1.69552000       3.91611000      10.32548000       0.01165900       0.00561500      -0.02587800
C        1.41109000       6.35416000      10.32401000      -0.02202900      -0.01033700      -0.03754900
C        1.12850000       8.79737000      10.32441000       0.02216200       0.00178500      -0.02970500
C        4.23243000       0.48964000      10.32428000       0.12147700      -0.10511600      -0.02177600
C        3.95040000       2.93149000      10.32404000       0.09271400       0.14444700      -0.02204000
C        3.66813000       5.37658000      10.32448000       0.02026100      -0.03689100      -0.02687000
C        3.38720000       7.81961000      10.32418000      -0.14272200      -0.03309000      -0.02094000
C        6.20781000       1.95447000      10.32426000       0.02259300       0.05292100      -0.02809400
C        5.92573000       4.39875000      10.32429000      -0.00122300       0.00648900      -0.02893500
C        5.64294000       6.84310000      10.32411000       0.09018600      -0.14652700      -0.02507000
C        8.45868000       0.97646000      10.32535000       0.00536300      -0.00293800      -0.02503300
C        8.18403000       3.42160000      10.32425000      -0.16234100       0.01620100      -0.02379900
C       -3.66773000       7.00652000      10.32379000      -0.02318000      -0.16899000      -0.02535200
C       -1.13257000       3.58911000      10.32500000      -0.01517200       0.02572500      -0.02739100
C       -1.41150000       6.02768000      10.32356000       0.05775600       0.01440100      -0.03040400
C       -1.69427000       8.47139000      10.32375000       0.19555900      -0.01015100      -0.02446300
C        1.41631000       0.15581000      10.31801000      -0.05687500       0.07713800      -0.27030200
C        1.13226000       2.61488000      10.31824000      -0.04931100      -0.09986300      -0.27708100
C        0.84757000       5.04960000      10.32334000      -0.08163100       0.16971700      -0.02774100
C        0.56440000       7.49442000      10.32354000      -0.00526600      -0.00479800      -0.03453700
C        3.39229000       1.62993000      10.32487000       0.03000100      -0.00528900      -0.03179600
C        3.10280000       4.07284000      10.32368000       0.15503700       0.06022000      -0.01969700
C        2.82211000       6.51648000      10.32396000      -0.02044300       0.02389000      -0.02808900
C        2.54000000       8.96173000      10.32376000      -0.11078100      -0.17635700      -0.02140300
C        5.64399000       0.65216000      10.32387000      -0.02368400      -0.05023500      -0.02498200
C        5.36148000       3.09563000      10.32405000      -0.00516600      -0.00215200      -0.02800800
C        5.07922000       5.53914000      10.32378000       0.00742500       0.00173500      -0.02790400
C        4.79494000       7.97734000      10.32480000      -0.03111600      -0.04349400      -0.03149000
C        7.61957000       2.11699000      10.32364000      -0.13896800       0.11041500      -0.02044000
C        7.33652000       4.56190000      10.32381000      -0.00451600      -0.01397300      -0.02472600
C        9.86738000       1.13925000      10.31801000       0.09677800       0.01873700      -0.27559500
Li       0.56428000       1.30332000      11.89242000      -0.00049200       0.00343400      -0.23899900
77
Lattice="10.722900391 0.0 0.0 -5.361450195 9.286304141 0.0 0.0 0.0 24.0" Properties=species:S:1:pos:R:3:forces:R:3 stress="-0.004696348643661347 2.7550021281648704e-05 -2.278150830947389e-06 2.7550021281648704e-05 -0.004618254881478296 1.1833901302674659e-05 -2.278150830947389e-06 1.1833901302674659e-05 0.0012026077368660604" free_energy=-707.6043587 energy=-707.60221655 pbc="T T T"
C        0.00171000       0.00402000      13.71485000      -0.32385600      -0.78291500       0.24190700
C       -2.82124000       5.86530000      13.67705000      -0.05646300      -0.15482200       0.03965700
C       -3.10169000       8.30676000      13.67977000       0.02803500      -0.06185300       0.02389200
C       -0.27933000       2.43973000      13.71456000      -0.53474400       0.72057800       0.25125700
C       -0.56418000       4.89454000      13.67456000      -0.14506300      -0.36966600      -0.01292600
C       -0.84622000       7.33072000      13.67728000       0.02860900       0.04992300       0.02222700
C        1.97124000       1.46571000      13.71509000       0.80410500       0.15236400       0.24663300
C        1.69436000       3.91328000      13.67982000       0.01497300       0.05613700       0.02260700
C        1.41094000       6.35488000      13.67721000      -0.04336400      -0.03548700       0.02341100
C        1.12741000       8.79749000      13.67694000       0.06539500      -0.05624600       0.03192100
C        4.23863000       0.48483000      13.67431000      -0.23695200       0.35349000      -0.01270000
C        3.95504000       2.93668000      13.67502000      -0.11903600      -0.23949200      -0.00977300
C        3.66702000       5.37657000      13.67709000       0.21889400       0.03144200       0.04280500
C        3.37970000       7.81676000      13.67453000       0.43651400       0.02320600      -0.00956500
C        6.20832000       1.95414000      13.67790000      -0.11659900       0.14152000       0.04237600
C        5.92566000       4.39855000      13.67825000       0.01533000       0.04285300       0.03314500
C        5.64560000       6.83670000      13.67437000      -0.18081200       0.21698400      -0.01343100
C        8.46216000       0.97611000      13.67981000      -0.08154300       0.05101100       0.01659500
C        8.17752000       3.42261000      13.67433000       0.26779400       0.06221900      -0.01337000
C       -4.51418000       8.13864000      13.67749000       0.07778500       0.31719800       0.20699800
C       -1.97531000       4.72425000      13.67813000      -0.05385200       0.10047400       0.01187700
C       -2.25512000       7.16461000      13.67756000      -0.05464300       0.17563500       0.00755200
C        0.56417000       1.30400000      13.80731000       0.02245000      -0.05326000       0.07059100
C        0.28119000       3.75313000      13.67726000       0.12827900      -0.19848300       0.20420900
C       -0.00151000       6.19102000      13.67721000       0.17851200       0.20547900       0.00437100
C       -0.28145000       8.63588000      13.67740000       0.06015100      -0.26936500       0.00042000
C        2.82786000       0.32453000      13.67712000      -0.23752400      -0.05640100       0.21071400
C        2.54484000       2.77396000      13.67716000      -0.24159400      -0.09881900       0.21276800
C        2.25969000       5.21730000      13.67744000      -0.15543700      -0.09956200       0.00813600
C        1.97610000       7.65587000      13.67744000      -0.29884800       0.07301800       0.00186000
C        4.79704000       1.79262000      13.67870000       0.11714400      -0.04505500       0.01847900
C        4.51670000       4.23555000      13.67799000      -0.04969200       0.17768700       0.00775800
C        4.23374000       6.67925000      13.67810000      -0.11847200      -0.07187900       0.01121700
C        3.94528000       9.11938000      13.67740000       0.13440600       0.18227200       0.20664900
C        7.04994000       0.81421000      13.67739000       0.17694000      -0.04380400       0.01094700
C        6.77188000       3.26020000      13.67810000      -0.14165900      -0.13754700       0.00592100
C        6.48897000       5.70156000      13.67731000       0.18613500      -0.12711000       0.00711800
C        9.02354000       2.28379000      13.67721000       0.21898600      -0.24405100       0.20585800
C       -0.00154000      -0.00398000      10.30446000      -0.15838900      -0.32486600      -0.26373400