85
Lattice="11.273099899 0.0 0.0 -5.63654995 9.762790892 0.0 0.0 0.0 24.0" Properties=species:S:1:pos:R:3:forces:R:3 stress="-0.004393054990707302 1.3169584255613676e-05 -1.497962190211982e-07 1.3169584255613676e-05 -0.004382450666702426 -9.362263688824886e-08 -1.497962190211982e-07 -9.362263688824886e-08 -0.00031547707876776926" free_energy=-781.46174818 energy=-781.45623995 pbc="T T T"
C        0.00000000       0.00000000      13.67500000      -0.06340800      -0.32337500       0.17984300
C       -0.80524000       2.32452000      13.67500000      -0.24592400       0.19756000       0.17147100
C       -1.61042000       4.64894000      13.67500000      -0.03343600      -0.01962000       0.00248600
C       -2.41566000       6.97346000      13.67500000      -0.02442000      -0.02360200       0.01320400
C       -3.22084000       9.29789000      13.67500000       0.03492100      -0.04314900       0.02055300
C        1.61048000       1.85962000      13.67500000       0.29088900       0.09420900       0.16786700
C        0.80518000       4.18404000      13.67500000       0.01679100       0.06599100       0.02897300
C       -0.00006000       6.50856000      13.67500000      -0.00293800      -0.01546800       0.00515500
C       -0.80524000       8.83298000      13.67500000      -0.00095000       0.01034500       0.00214000
C        4.02607000       1.39471000      13.67500000       0.00127000       0.03307100       0.01367700
C        3.22089000       3.71914000      13.67500000       0.01560900      -0.01874600       0.00619900
C        2.41566000       6.04366000      13.67500000       0.02362200      -0.01305200       0.00201000
C        1.61048000       8.36808000      13.67500000       0.00606700      -0.00677500       0.01334300
C        6.44179000       0.92981000      13.67500000      -0.00418100       0.02490200       0.00556300
C        5.63661000       3.25423000      13.67500000      -0.01292700       0.01233800      -0.00140100
C        4.83137000       5.57875000      13.67500000       0.00199100      -0.00690100       0.01027100
C        4.02607000       7.90317000      13.67500000       0.03844400      -0.01088200       0.00528800
C        8.85739000       0.46490000      13.67500000      -0.04859900      -0.03127100       0.01675700
C        8.05221000       2.78933000      13.67500000       0.00532400       0.02742400       0.01381100
C        7.24697000       5.11385000      13.67500000      -0.00956500      -0.00744800       0.00264300
C        6.44179000       7.43827000      13.67500000      -0.02952100       0.00962700       0.00159600
C        7.51538000       6.50856000      13.67500000       0.03997800      -0.00362900       0.03958500
C       -4.56290000       8.83298000      13.67500000       0.11865600      -0.09374500       0.04194100
C        0.26841000       1.39471000      13.67500000      -0.01407300       0.00636200       3.81502000
C       -0.53677000       3.71914000      13.67500000       0.01409300       0.13489500       0.04193900
C       -1.34201000       6.04366000      13.67500000       0.03064600       0.02860600       0.03917000
C       -2.14730000       8.36808000      13.67500000      -0.00306600       0.01575800       0.03145800
C        2.68401000       0.92981000      13.67500000       0.13184100      -0.09881200       0.04183800
C        1.87883000       3.25423000      13.67500000       0.05489700       0.16248300       0.04192600
C        1.07359000       5.57875000      13.67500000      -0.02403900       0.01105500       0.03147100
C        0.26841000       7.90317000      13.67500000       0.00596600      -0.01105800       0.03629200
C        5.09972000       0.46490000      13.67500000       0.01607200      -0.01204200       0.03916400
C        4.29449000       2.78942000      13.67500000      -0.01190800      -0.00034400       0.04146500
C        3.48931000       5.11385000      13.67500000      -0.02441000       0.00928300       0.03954900
C        2.68407000       7.43837000      13.67500000      -0.00822300       0.02113000       0.03916500
C        7.51544000       0.00000000      13.67500000      -0.01760900      -0.00316100       0.03149200
C        6.71020000       2.32452000      13.67500000      -0.00187400      -0.05361800       0.03957500
C        5.90491000       4.64894000      13.67500000       0.01904000       0.01319600       0.03781200
C        5.09967000       6.97346000      13.67500000      -0.01476900       0.00644500       0.04142000
C        4.29449000       9.29789000      13.67500000      -0.12865100      -0.07478800       0.04187900
C        9.12580000       1.85962000      13.67500000      -0.13061300      -0.02589500       0.04188000
C        8.32062000       4.18404000      13.67500000      -0.00836300       0.01135800       0.04144900
C        0.00000000       0.00000000      10.32500000      -0.05163200      -0.27558800      -0.20712300
C       -0.80524000       2.32452000      10.32500000      -0.20921100       0.16857200      -0.19501200
C       -1.61042000       4.64894000      10.32500000      -0.00403600      -0.02665200      -0.01155900
C       -2.41566000       6.97346000      10.32500000       0.02812100       0.01439600      -0.01387600
C       -3.22084000       9.29789000      10.32500000       0.14546200      -0.12275000       0.03116100
C        1.61048000       1.85962000      10.32500000       0.25977400       0.08421200      -0.19885100
C        0.80518000       4.18404000      10.32500000       0.04054100       0.20859600       0.01895200
C       -0.00006000       6.50856000      10.32500000       0.03003100       0.00376900      -0.00233100
C       -0.80524000       8.83298000      10.32500000      -0.00189900      -0.01619700      -0.00637300
C        4.02607000       1.39471000      10.32500000      -0.01715900       0.01945600      -0.01918600
C        3.22089000       3.71914000      10.32500000      -0.00894300      -0.02995700      -0.00777600
C        2.41566000       6.04366000      10.32500000      -0.02522400       0.01606000      -0.00625600
C        1.61048000       8.36808000      10.32500000      -0.01420400       0.01500300      -0.01400000
C        6.44179000       0.92981000      10.32500000       0.00281800      -0.02941000      -0.00267300
C        5.63661000       3.25423000      10.32500000      -0.02338500      -0.00641000      -0.00268600
C        4.83137000       5.57875000      10.32500000      -0.00940200       0.02162000      -0.01087700
C        4.02607000       7.90317000      10.32500000       0.04666500       0.02214400      -0.00697800
C        8.85739000       0.46490000      10.32500000      -0.17919800      -0.07535000       0.02734900
C        8.05221000       2.78933000      10.32500000       0.03605000       0.01383300      -0.01896200
C        7.24697000       5.11385000      10.32500000       0.02265600      -0.00213700       0.00033100
C        6.44179000       7.43827000      10.32500000      -0.02367300       0.04223600      -0.01055400
C        9.39427000       3.25423000      10.32500000      -0.15755500       0.14004900      -0.00339000
C       -2.68407000       5.57875000      10.32500000      -0.01061000      -0.02646900      -0.03713800
C       -3.48925000       7.90317000      10.32500000      -0.00582900       0.02307400      -0.04225500
C        1.34206000       0.46490000      10.32500000       0.20452000      -0.16865200      -0.21822400
C        0.53688000       2.78933000      10.32500000       0.06144100       0.26819200      -0.21794800
C       -0.26836000       5.11385000      10.32500000       0.00898000      -0.04341500      -0.04224500
C       -1.07365000       7.43827000      10.32500000      -0.02264800       0.02335800      -0.03477000
C        3.75766000       0.00000000      10.32500000      -0.02183300      -0.01617900      -0.04226900
C        2.95248000       2.32442000      10.32500000       0.16805300       0.05834600      -0.00340600
C        2.14724000       4.64894000      10.32500000      -0.03856300       0.00293800      -0.04227500
C        1.34206000       6.97337000      10.32500000       0.01729500      -0.02441200      -0.03477100
C        0.53683000       9.29789000      10.32500000       0.00023900       0.00159800      -0.03475500
C        5.36814000       1.85962000      10.32500000      -0.00905300       0.04059300      -0.03713700
C        4.56296000       4.18404000      10.32500000       0.02417100      -0.01969600      -0.03661700
C        3.75772000       6.50856000      10.32500000       0.01217100      -0.02911300      -0.03715200
C        2.95254000       8.83298000      10.32500000       0.00216200       0.05336900      -0.04222100
C        7.78385000       1.39471000      10.32500000       0.03816700      -0.03585500      -0.04229000
C        6.97856000       3.71914000      10.32500000      -0.00303500       0.00029000      -0.03662100
C        6.17332000       6.04366000      10.32500000      -0.01758400       0.01157900      -0.03660800
C        5.36814000       8.36808000      10.32500000      -0.01717700      -0.19872200      -0.00338200
C       10.19945000       0.92981000      10.32500000      -0.27337700      -0.10493700      -0.21800900
Li       0.26841000       1.39471000      12.00000000      -0.00673800      -0.00003300      -3.37617300
85
Lattice="11.273099899 0.0 0.0 -5.63654995 9.762790892 0.0 0.0 0.0 24.0" Properties=species:S:1:pos:R:3:forces:R:3 stress="-0.004424081532572068 1.3456693675404304e-05 7.177735494765747e-07 1.3456693675404304e-05 -0.004404152393933123 4.743546935671276e-07 7.177735494765747e-07 4.743546935671276e-07 0.0014781453987373029" free_energy=-781.79448668 energy=-781.78889074 pbc="T T T"
C        0.00000000       0.00000000      13.68368000      -0.02261300      -0.11158000       1.00676300
C       -0.80524000       2.32452000      13.68327000      -0.08409000       0.06473700       1.03539600
C       -1.61042000       4.64894000      13.67512000      -0.02522000      -0.01137800      -0.05877500
C       -2.41566000       6.97346000      13.67564000      -0.02136800      -0.02095000       0.03847500
C       -3.22084000       9.29789000      13.67599000       0.02752300      -0.03832600       0.09848500
C        1.61048000       1.85962000      13.68310000       0.09798000       0.03119600       1.03198700
C        0.80518000       4.18404000      13.67640000       0.01477800       0.05650800       0.10395500
C       -0.00006000       6.50856000      13.67525000       0.00334500      -0.01794200       0.02733100
C       -0.80524000       8.83298000      13.67510000      -0.00086400       0.00762300       0.02657300
C        4.02607000       1.39471000      13.67566000       0.00487700       0.02044600      -0.05312800
C        3.22089000       3.71914000      13.67530000       0.00819700      -0.00522900      -0.05856800
C        2.41566000       6.04366000      13.67510000       0.01892600      -0.01279800       0.03285200
C        1.61048000       8.36808000      13.67564000       0.00419600      -0.00684200       0.03220200
C        6.44179000       0.92981000      13.67527000      -0.00489400       0.01411100       0.03420000
C        5.63661000       3.25423000      13.67493000      -0.01300400       0.01002000       0.04566300
C        4.83137000       5.57875000      13.67550000       0.00056100      -0.00704900       0.05151100
C        4.02607000       7.90317000      13.67526000       0.02983800      -0.00910000      -0.05745200
C        8.85739000       0.46490000      13.67581000      -0.03660400      -0.02003500       0.09612700
C        8.05221000       2.78933000      13.67567000      -0.00153600       0.01854300      -0.05424400
C        7.24697000       5.11385000      13.67513000      -0.00842800      -0.00749900       0.04764700
C        6.44179000       7.43827000      13.67508000      -0.01940700       0.00702700      -0.06032100
C        7.51538000       6.50856000      13.67691000       0.03543700      -0.00763100       0.00736400
C       -4.56290000       8.83298000      13.67702000       0.10959300      -0.09839600      -0.00172600
C        0.26841000       1.39471000      13.85905000      -0.01880300       0.00843400      -1.58357000
C       -0.53677000       3.71914000      13.67702000       0.00483900       0.13179100      -0.00187500
C       -1.34201000       6.04366000      13.67689000       0.02730800       0.02641600       0.00889000
C       -2.14730000       8.36808000      13.67652000      -0.00331000       0.01282700       0.02257300
C        2.68401000       0.92981000      13.67702000       0.13452500      -0.09059200      -0.00201500
C        1.87883000       3.25423000      13.67702000       0.06267200       0.15569300      -0.00145900
C        1.07359000       5.57875000      13.67652000      -0.02232900       0.01111200       0.02272500
C        0.26841000       7.90317000      13.67675000       0.00587200      -0.01196200       0.01442400
C        5.09972000       0.46490000      13.67689000       0.01646600      -0.00939400       0.00900800
C        4.29449000       2.78942000      13.67700000      -0.01287000      -0.00014100       0.03092000
C        3.48931000       5.11385000      13.67691000      -0.01958100       0.00609200       0.00772100
C        2.68407000       7.43837000      13.67689000      -0.00551300       0.01811200       0.00876400
C        7.51544000       0.00000000      13.67652000      -0.01954100      -0.00286100       0.02249000
C        6.71020000       2.32452000      13.67691000      -0.00247500      -0.04909300       0.00753300
C        5.90491000       4.64894000      13.67682000       0.01895600       0.01234200       0.01055500
C        5.09967000       6.97346000      13.67700000      -0.01361100       0.00577800       0.03062000
C        4.29449000       9.29789000      13.67702000      -0.12215400      -0.08244300      -0.00220400
C        9.12580000       1.85962000      13.67702000      -0.12982100      -0.01695200      -0.00163300
C        8.32062000       4.18404000      13.67700000      -0.00898600       0.00930800       0.03108500
C        0.00000000       0.00000000      10.31501000      -0.07734100      -0.41070300      -0.31740700
C       -0.80524000       2.32452000      10.31559000      -0.31538000       0.27271700      -0.34376100
C       -1.61042000       4.64894000      10.32444000      -0.01744000      -0.02578900      -0.01977100
C       -2.41566000       6.97346000      10.32433000       0.03147500       0.01781500      -0.03515400
C       -3.22084000       9.29789000      10.32650000       0.17584400      -0.14324900      -0.05725500
C        1.61048000       1.85962000      10.31541000       0.39651900       0.13627900      -0.34593400
C        0.80518000       4.18404000      10.32591000       0.04368700       0.22926100      -0.04990900
C       -0.00006000       6.50856000      10.32489000       0.03896000       0.00022100      -0.02702800
C       -0.80524000       8.83298000      10.32469000       0.00437500      -0.01063900      -0.02887500
C        4.02607000       1.39471000      10.32407000      -0.01834600       0.01855800      -0.02546500
C        3.22089000       3.71914000      10.32462000      -0.02291300      -0.02027400      -0.01826600
C        2.41566000       6.04366000      10.32470000      -0.02712500       0.01159800      -0.03087700
C        1.61048000       8.36808000      10.32432000      -0.01578500       0.01623600      -0.03376700
C        6.44179000       0.92981000      10.32487000       0.00469200      -0.03542700      -0.02948600
C        5.63661000       3.25423000      10.32487000      -0.02571200      -0.00771900      -0.02889100
C        4.83137000       5.57875000      10.32448000      -0.01175600       0.02150100      -0.03335500
C        4.02607000       7.90317000      10.32466000       0.04971300       0.02638800      -0.01870500
C        8.85739000       0.46490000      10.32632000      -0.21018100      -0.08168600      -0.05819100
C        8.05221000       2.78933000      10.32409000       0.03947500       0.01236900      -0.02530800
C        7.24697000       5.11385000      10.32502000       0.02430200      -0.00141900      -0.02775200
C        6.44179000       7.43827000      10.32449000      -0.02646100       0.04772200      -0.02067600
C        9.39427000       3.25423000      10.32484000      -0.17148900       0.14949900      -0.03438700
C       -2.68407000       5.57875000      10.32321000      -0.01291800      -0.03213300      -0.01683000
C       -3.48925000       7.90317000      10.32296000      -0.00678000       0.02555500      -0.00778900
C        1.34206000       0.46490000      10.31447000       0.31244400      -0.27154700      -0.31848400
C        0.53688000       2.78933000      10.31449000       0.06898400       0.39765900      -0.31885000
C       -0.26836000       5.11385000      10.32296000       0.01062900      -0.04922600      -0.00818000
C       -1.07365000       7.43827000      10.32332000      -0.02524400       0.02239200      -0.01607100
C        3.75766000       0.00000000      10.32296000      -0.02707200      -0.01611500      -0.00802900
C        2.95248000       2.32442000      10.32484000       0.18366200       0.06429300      -0.03436600
C        2.14724000       4.64894000      10.32296000      -0.04117000      -0.00029400      -0.00826800
C        1.34206000       6.97337000      10.32332000       0.01860400      -0.02737200      -0.01607000
C        0.53683000       9.29789000      10.32332000       0.00124000       0.00296900      -0.01623500
C        5.36814000       1.85962000      10.32321000      -0.01225000       0.04408300      -0.01671100
C        4.56296000       4.18404000      10.32323000       0.02421500      -0.02134400      -0.01465600
C        3.75772000       6.50856000      10.32321000       0.01728800      -0.02946700      -0.01650600
C        2.95254000       8.83298000      10.32296000       0.00545200       0.05657800      -0.00784900
C        7.78385000       1.39471000      10.32296000       0.04140500      -0.03773600      -0.00803500
C        6.97856000       3.71914000      10.32323000      -0.00252600      -0.00008700      -0.01464600
C        6.17332000       6.04366000      10.32323000      -0.01843500       0.01107400      -0.01451600
C        5.36814000       8.36808000      10.32484000      -0.01928100      -0.21655700      -0.03411700
C       10.19945000       0.92981000      10.31448000      -0.38929200      -0.13431500      -0.31926000
Li       0.26809000       1.39471000      11.83712000      -0.00693200      -0.00159300       0.81881700
85
Lattice="11.273099899 0.0 0.0 -5.63654995 9.762790892 0.0 0.0 0.0 24.0" Properties=species:S:1:pos:R:3:forces:R:3 stress="-0.00441529972923195 1.3687629513061985e-05 -1.2982338981837175e-06 1.3687629513061985e-05 -0.00440013910356518 -2.4966036503533037e-08 -1.2982338981837175e-06 -2.4966036503533037e-08 0.0011051528133745193" free_energy=-781.85518694 energy=-781.84958558 pbc="T T T"
C        0.00000000       0.00000000      13.68090000      -0.04278200      -0.21440300       0.75463000
C       -0.80524000       2.32452000      13.68063000      -0.16512600       0.13485600       0.74656300
C       -1.61042000       4.64894000      13.67508000      -0.02662200      -0.01424200      -0.03976500
C       -2.41566000       6.97346000      13.67543000      -0.02235700      -0.02034300       0.03027100
C       -3.22084000       9.29789000      13.67567000       0.02360800      -0.03947600       0.07461000
C        1.61048000       1.85962000      13.68051000       0.19857900       0.06637700       0.74273900
C        0.80518000       4.18404000      13.67595000       0.01451200       0.05576100       0.08084000
C       -0.00006000       6.50856000      13.67517000       0.00313300      -0.01828200       0.01984800
C       -0.80524000       8.83298000      13.67507000      -0.00161700       0.00833100       0.01861700
C        4.02607000       1.39471000      13.67545000       0.00251100       0.02348000      -0.03234400
C        3.22089000       3.71914000      13.67520000       0.00996000      -0.00925700      -0.03840300
C        2.41566000       6.04366000      13.67507000       0.01890500      -0.01332400       0.02288000
C        1.61048000       8.36808000      13.67544000       0.00461400      -0.00618500       0.02602000
C        6.44179000       0.92981000      13.67518000      -0.00240500       0.02046800       0.02520500
C        5.63661000       3.25423000      13.67495000      -0.01321800       0.01081500       0.03055500
C        4.83137000       5.57875000      13.67534000       0.00077800      -0.00689200       0.03825600
C        4.02607000       7.90317000      13.67517000       0.03293600      -0.00828600      -0.03803800
C        8.85739000       0.46490000      13.67555000      -0.03455200      -0.02884200       0.07208200
C        8.05221000       2.78933000      13.67545000       0.00085200       0.02012500      -0.03307500
C        7.24697000       5.11385000      13.67509000      -0.00897900      -0.00740800       0.03319500
C        6.44179000       7.43827000      13.67505000      -0.02188700       0.00896300      -0.04111600
C        7.51538000       6.50856000      13.67630000       0.03653800      -0.00580700       0.01752100
C       -4.56290000       8.83298000      13.67638000       0.11726400      -0.09808100       0.01257500
C        0.26841000       1.39471000      13.80026000      -0.02018500       0.00416300      -0.25081100
C       -0.53677000       3.71914000      13.67638000       0.01066400       0.13697300       0.01250200
C       -1.34201000       6.04366000      13.67629000       0.02880500       0.02670800       0.01842800
C       -2.14730000       8.36808000      13.67603000      -0.00158900       0.01158000       0.02516800
C        2.68401000       0.92981000      13.67637000       0.13541300      -0.09784600       0.01239600
C        1.87883000       3.25423000      13.67638000       0.05855500       0.16288900       0.01277200
C        1.07359000       5.57875000      13.67603000      -0.02206700       0.01393200       0.02527300
C        0.26841000       7.90317000      13.67619000       0.00568600      -0.01158700       0.02133700
C        5.09972000       0.46490000      13.67629000       0.01536300      -0.01047100       0.01850900
C        4.29449000       2.78942000      13.67636000      -0.01260100      -0.00003800       0.03423700
C        3.48931000       5.11385000      13.67630000      -0.02167800       0.00685300       0.01776800
C        2.68407000       7.43837000      13.67629000      -0.00649000       0.01997100       0.01834200
C        7.51544000       0.00000000      13.67603000      -0.02203100      -0.00336000       0.02511100
C        6.71020000       2.32452000      13.67630000      -0.00202700      -0.05057800       0.01764600
C        5.90491000       4.64894000      13.67624000       0.01876500       0.01269700       0.01918900
C        5.09967000       6.97346000      13.67636000      -0.01421600       0.00587200       0.03402200
C        4.29449000       9.29789000      13.67638000      -0.12954600      -0.07932200       0.01227000
C        9.12580000       1.85962000      13.67638000      -0.13382500      -0.02343400       0.01263500
C        8.32062000       4.18404000      13.67636000      -0.00918000       0.01015300       0.03434400
C        0.00000000       0.00000000      10.31820000      -0.06807900      -0.36099900      -0.30038300
C       -0.80524000       2.32452000      10.31860000      -0.27703400       0.23967500      -0.28928600
C       -1.61042000       4.64894000      10.32462000      -0.01514700      -0.02549900      -0.01730100
C       -2.41566000       6.97346000      10.32454000       0.03027100       0.01652000      -0.02831600
C       -3.22084000       9.29789000      10.32602000       0.17086200      -0.13913200      -0.03311900
C        1.61048000       1.85962000      10.31847000       0.34840100       0.11998400      -0.29218200
C        0.80518000       4.18404000      10.32562000       0.04265800       0.22353900      -0.02774500
C       -0.00006000       6.50856000      10.32492000       0.03795800       0.00078700      -0.01882000
C       -0.80524000       8.83298000      10.32479000      -0.00087400      -0.01556900      -0.02208700
C        4.02607000       1.39471000      10.32437000      -0.01807700       0.01880300      -0.02340100
C        3.22089000       3.71914000      10.32474000      -0.01309900      -0.02778200      -0.01546800
C        2.41566000       6.04366000      10.32479000      -0.02752100       0.01341500      -0.02302500
C        1.61048000       8.36808000      10.32454000      -0.01572500       0.01576600      -0.02739800
C        6.44179000       0.92981000      10.32491000       0.00358400      -0.03335500      -0.02088700
C        5.63661000       3.25423000      10.32491000      -0.02583400      -0.00648800      -0.02030000
C        4.83137000       5.57875000      10.32464000      -0.01120500       0.02137100      -0.02607300
C        4.02607000       7.90317000      10.32477000       0.05146500       0.02199000      -0.01502900
C        8.85739000       0.46490000      10.32590000      -0.20467200      -0.07902300      -0.03470300
C        8.05221000       2.78933000      10.32438000       0.03805500       0.01284700      -0.02322600
C        7.24697000       5.11385000      10.32501000       0.02333200      -0.00145700      -0.01869000
C        6.44179000       7.43827000      10.32465000      -0.02615300       0.04694100      -0.01724800
C        9.39427000       3.25423000      10.32489000      -0.16765600       0.14685400      -0.02427200
C       -2.68407000       5.57875000      10.32378000      -0.01237900      -0.02992400      -0.02328100
C       -3.48925000       7.90317000      10.32361000      -0.00668100       0.02480500      -0.01881600
C        1.34206000       0.46490000      10.31783000       0.27532200      -0.23945200      -0.27875900
C        0.53688000       2.78933000      10.31784000       0.05890200       0.34972200      -0.27886900
C       -0.26836000       5.11385000      10.32361000       0.00983600      -0.04717700      -0.01907600
C       -1.07365000       7.43827000      10.32386000      -0.02446500       0.02276400      -0.02199500
C        3.75766000       0.00000000      10.32361000      -0.02549500      -0.01606900      -0.01896100
C        2.95248000       2.32442000      10.32489000       0.17891600       0.06267100      -0.02425600
C        2.14724000       4.64894000      10.32361000      -0.04054300       0.00085300      -0.01914900
C        1.34206000       6.97337000      10.32386000       0.01789300      -0.02618700      -0.02199000
C        0.53683000       9.29789000      10.32386000       0.00059800       0.00246900      -0.02210300
C        5.36814000       1.85962000      10.32378000      -0.01118600       0.04287300      -0.02320400
C        4.56296000       4.18404000      10.32380000       0.02414700      -0.02044300      -0.02160300
C        3.75772000       6.50856000      10.32378000       0.01514800      -0.02941300      -0.02305200
C        2.95254000       8.83298000      10.32361000       0.00410300       0.05553400      -0.01883700
C        7.78385000       1.39471000      10.32361000       0.04011200      -0.03705100      -0.01899200
C        6.97856000       3.71914000      10.32380000      -0.00324700       0.00011400      -0.02159400
C        6.17332000       6.04366000      10.32380000      -0.01821800       0.01102600      -0.02150600
C        5.36814000       8.36808000      10.32489000      -0.01888700      -0.21126900      -0.02408000
C       10.19945000       0.92981000      10.31784000      -0.34254700      -0.11730400      -0.27913800
Li       0.26819000       1.39471000      11.88915000       0.00070500      -0.00123600      -0.12658300
85
Lattice="11.273099899 0.0 0.0 -5.63654995 9.762790892 0.0 0.0 0.0 24.0" Properties=species:S:1:pos:R:3:forces:R:3 stress="-0.0042841468979697645 2.5059659140421282e-05 -8.800527867495394e-07 2.5059659140421282e-05 -0.004261664982098333 2.4966036503533037e-08 -8.800527867495394e-07 2.4966036503533037e-08 0.0012645110243765705" free_energy=-781.93124334 energy=-781.92564841 pbc="T T T"
C        0.00000000       0.00000000      13.71562000      -0.05095500      -0.25786700       0.24943700
C       -0.80524000       2.32452000      13.71495000      -0.19893000       0.16427800       0.23312500
C       -1.61042000       4.64894000      13.67329000      -0.03308400      -0.01299500      -0.00617000
C       -2.41566000       6.97346000      13.67685000      -0.02207200      -0.02001900       0.02909500
C       -3.22084000       9.29789000      13.67912000       0.03779300      -0.03912000       0.01944400
C        1.61048000       1.85962000      13.71465000       0.23936500       0.08071500       0.24118200
C        0.80518000       4.18404000      13.67970000       0.01463100       0.05615700       0.02416300
C       -0.00006000       6.50856000      13.67608000       0.00457700      -0.01555500       0.02336500
C       -0.80524000       8.83298000      13.67592000      -0.00170900       0.00814900       0.01921500
C        4.02607000       1.39471000      13.67404000       0.00673900       0.02900800      -0.01494700
C        3.22089000       3.71914000      13.67349000       0.01852600      -0.01415700      -0.00659700
C        2.41566000       6.04366000      13.67611000       0.01892700      -0.01281900       0.02140700
C        1.61048000       8.36808000      13.67666000       0.00436700      -0.00539900       0.02689100
C        6.44179000       0.92981000      13.67634000      -0.00235800       0.02066300       0.02361800
C        5.63661000       3.25423000      13.67633000      -0.02077400       0.01950700       0.03253400