85
Lattice="11.273099899 0.0 0.0 -5.63654995 9.762790892 0.0 0.0 0.0 24.0" Properties=species:S:1:pos:R:3:forces:R:3 stress="-0.004440359388372371 1.3594006876173737e-05 -0.0 1.3594006876173737e-05 -0.004429861170022635 -0.0 -0.0 -0.0 0.004479106677025855" free_energy=-782.3381628 energy=-782.33416483 pbc="T T T"
C        0.00000000       0.00000000      13.87500000      -0.03242600      -0.18993900      -0.03679100
C       -0.80524000       2.32452000      13.87500000      -0.17989300      -0.07955100       0.04015200
C       -1.61042000       4.64894000      13.87500000      -0.14872700       0.11770400      -0.04815400
C       -2.41566000       6.97346000      13.87500000      -0.02657600      -0.02248200      -0.00882900
C       -3.22084000       9.29789000      13.87500000      -0.00917400       0.02253800      -0.00979800
C        1.61048000       1.85962000      13.87500000       0.12759100      -0.13791300       0.03640800
C        0.80518000       4.18404000      13.87500000       0.03860200       0.18759300       0.04854400
C       -0.00006000       6.50856000      13.87500000       0.02726000      -0.02867000      -0.00936700
C       -0.80524000       8.83298000      13.87500000      -0.01881200       0.00065400      -0.02094500
C        4.02607000       1.39471000      13.87500000      -0.02681000      -0.00990000      -0.00130000
C        3.22089000       3.71914000      13.87500000       0.17465000       0.06649100      -0.04457700
C        2.41566000       6.04366000      13.87500000      -0.02309500      -0.00720700      -0.01258500
C        1.61048000       8.36808000      13.87500000       0.00163400      -0.01610100      -0.00973500
C        6.44179000       0.92981000      13.87500000       0.01006400       0.01085500      -0.01736400
C        5.63661000       3.25423000      13.87500000      -0.01434500       0.03158800      -0.02040600
C        4.83137000       5.57875000      13.87500000       0.00533200      -0.01268700      -0.00900800
C        4.02607000       7.90317000      13.87500000       0.03285700      -0.00396800      -0.01726100
C        8.85739000       0.46490000      13.87500000       0.02276200       0.01654200      -0.01350000
C        8.05221000       2.78933000      13.87500000       0.01393600      -0.01400400      -0.00139500
C        7.24697000       5.11385000      13.87500000       0.00160700       0.01291400      -0.01661900
C        6.44179000       7.43827000      13.87500000      -0.01991500       0.01157200      -0.02121200
C        7.51538000       6.50856000      13.87500000       0.02411700      -0.01953400      -0.00368300
C       -4.56290000       8.83298000      13.87500000      -0.00608000       0.03280000       0.00462900
C        0.26841000       1.39471000      13.87500000      -0.05013000      -0.18219100       0.05457100
C       -0.53677000       3.71914000      13.87500000      -0.14429000       0.11303800       0.05487100
C       -1.34201000       6.04366000      13.87500000       0.00360200      -0.00686500       0.00451800
C       -2.14730000       8.36808000      13.87500000       0.01222800       0.02601600      -0.00295900
C        2.68401000       0.92981000      13.87500000       0.15704200      -0.13496000      -0.03107100
C        1.87883000       3.25423000      13.87500000       0.19636200       0.08056400       0.05485600
C        1.07359000       5.57875000      13.87500000       0.01601800       0.19424700      -0.03102400
C        0.26841000       7.90317000      13.87500000       0.02020200      -0.00621200      -0.00308100
C        5.09972000       0.46490000      13.87500000       0.01051500      -0.00207200      -0.00310500
C        4.29449000       2.78942000      13.87500000      -0.02618300       0.02106400       0.00454800
C        3.48931000       5.11385000      13.87500000      -0.00349000      -0.03868900       0.00457900
C        2.68407000       7.43837000      13.87500000      -0.01147800       0.02291000      -0.00295400
C        7.51544000       0.00000000      13.87500000      -0.02971100       0.01747700      -0.00293100
C        6.71020000       2.32452000      13.87500000       0.00528000      -0.04657000      -0.00293600
C        5.90491000       4.64894000      13.87500000       0.00744900      -0.00038100      -0.00384300
C        5.09967000       6.97346000      13.87500000      -0.01662600       0.02021400      -0.00386700
C        4.29449000       9.29789000      13.87500000       0.02708900      -0.00752200       0.00453000
C        9.12580000       1.85962000      13.87500000      -0.16249400      -0.05470100      -0.03104500
C        8.32062000       4.18404000      13.87500000       0.01253000       0.01530200       0.00460100
C        0.00000000       0.00000000      10.12500000      -0.03242600      -0.18993900       0.03679100
C       -0.80524000       2.32452000      10.12500000      -0.17989300      -0.07955100      -0.04015200
C       -1.61042000       4.64894000      10.12500000      -0.14872700       0.11770400       0.04815400
C       -2.41566000       6.97346000      10.12500000      -0.02657600      -0.02248200       0.00882900
C       -3.22084000       9.29789000      10.12500000      -0.00917400       0.02253800       0.00979800
C        1.61048000       1.85962000      10.12500000       0.12759100      -0.13791300      -0.03640800
C        0.80518000       4.18404000      10.12500000       0.03860200       0.18759300      -0.04854400
C       -0.00006000       6.50856000      10.12500000       0.02726000      -0.02867000       0.00936700
C       -0.80524000       8.83298000      10.12500000      -0.01881200       0.00065400       0.02094500
C        4.02607000       1.39471000      10.12500000      -0.02681000      -0.00990000       0.00130000
C        3.22089000       3.71914000      10.12500000       0.17465000       0.06649100       0.04457700
C        2.41566000       6.04366000      10.12500000      -0.02309500      -0.00720700       0.01258500
C        1.61048000       8.36808000      10.12500000       0.00163400      -0.01610100       0.00973500
C        6.44179000       0.92981000      10.12500000       0.01006400       0.01085500       0.01736400
C        5.63661000       3.25423000      10.12500000      -0.01434500       0.03158800       0.02040600
C        4.83137000       5.57875000      10.12500000       0.00533200      -0.01268700       0.00900800
C        4.02607000       7.90317000      10.12500000       0.03285700      -0.00396800       0.01726100
C        8.85739000       0.46490000      10.12500000       0.02276200       0.01654200       0.01350000
C        8.05221000       2.78933000      10.12500000       0.01393600      -0.01400400       0.00139500
C        7.24697000       5.11385000      10.12500000       0.00160700       0.01291400       0.01661900
C        6.44179000       7.43827000      10.12500000      -0.01991500       0.01157200       0.02121200
C        7.51538000       6.50856000      10.12500000       0.02411700      -0.01953400       0.00368300
C       -4.56290000       8.83298000      10.12500000      -0.00608000       0.03280000      -0.00462900
C        0.26841000       1.39471000      10.12500000      -0.05013000      -0.18219100      -0.05457100
C       -0.53677000       3.71914000      10.12500000      -0.14429000       0.11303800      -0.05487100
C       -1.34201000       6.04366000      10.12500000       0.00360200      -0.00686500      -0.00451800
C       -2.14730000       8.36808000      10.12500000       0.01222800       0.02601600       0.00295900
C        2.68401000       0.92981000      10.12500000       0.15704200      -0.13496000       0.03107100
C        1.87883000       3.25423000      10.12500000       0.19636200       0.08056400      -0.05485600
C        1.07359000       5.57875000      10.12500000       0.01601800       0.19424700       0.03102400
C        0.26841000       7.90317000      10.12500000       0.02020200      -0.00621200       0.00308100
C        5.09972000       0.46490000      10.12500000       0.01051500      -0.00207200       0.00310500
C        4.29449000       2.78942000      10.12500000      -0.02618300       0.02106400      -0.00454800
C        3.48931000       5.11385000      10.12500000      -0.00349000      -0.03868900      -0.00457900
C        2.68407000       7.43837000      10.12500000      -0.01147800       0.02291000       0.00295400
C        7.51544000       0.00000000      10.12500000      -0.02971100       0.01747700       0.00293100
C        6.71020000       2.32452000      10.12500000       0.00528000      -0.04657000       0.00293600
C        5.90491000       4.64894000      10.12500000       0.00744900      -0.00038100       0.00384300
C        5.09967000       6.97346000      10.12500000      -0.01662600       0.02021400       0.00386700
C        4.29449000       9.29789000      10.12500000       0.02708900      -0.00752200      -0.00453000
C        9.12580000       1.85962000      10.12500000      -0.16249400      -0.05470100       0.03104500
C        8.32062000       4.18404000      10.12500000       0.01253000       0.01530200      -0.00460100
Li       0.53680000       2.78938000      12.00000000       0.00305500       0.00007200      -0.00000000
85
Lattice="11.273099899 0.0 0.0 -5.63654995 9.762790892 0.0 0.0 0.0 24.0" Properties=species:S:1:pos:R:3:forces:R:3 stress="-0.0044217160006133575 1.730146329694839e-05 -0.0 1.730146329694839e-05 -0.004407285631514316 -0.0 -0.0 -0.0 0.004576187109969842" free_energy=-782.33994581 energy=-782.33594834 pbc="T T T"
C        0.00000000       0.00000000      13.87323000      -0.03240400      -0.18979900      -0.00044000
C       -0.80524000       2.32452000      13.87694000      -0.18255000      -0.06920300       0.03713900
C       -1.61042000       4.64894000      13.87268000      -0.14861100       0.11754500       0.00616900
C       -2.41566000       6.97346000      13.87457000      -0.02655800      -0.02244900      -0.00040300
C       -3.22084000       9.29789000      13.87453000       0.00130200       0.01987200      -0.01128000
C        1.61048000       1.85962000      13.87676000       0.13925800      -0.12919000       0.03446200
C        0.80518000       4.18404000      13.87734000       0.03850100       0.18705000       0.04377200
C       -0.00006000       6.50856000      13.87455000       0.02059900      -0.02363600      -0.01117400
C       -0.80524000       8.83298000      13.87399000      -0.01879100       0.00059200       0.00260900
C        4.02607000       1.39471000      13.87494000      -0.02666800      -0.00985600      -0.00783200
C        3.22089000       3.71914000      13.87285000       0.17450600       0.06643600       0.00733300
C        2.41566000       6.04366000      13.87439000      -0.02286200      -0.00724000      -0.00120100
C        1.61048000       8.36808000      13.87453000       0.00164100      -0.01610700      -0.00411800
C        6.44179000       0.92981000      13.87416000       0.01002500       0.01078600       0.00382600
C        5.63661000       3.25423000      13.87402000      -0.00775000       0.02873300       0.00664900
C        4.83137000       5.57875000      13.87457000       0.00532700      -0.01266500      -0.00203400
C        4.02607000       7.90317000      13.87417000       0.02535100      -0.01194500       0.00792500
C        8.85739000       0.46490000      13.87435000       0.00919200       0.02235700      -0.00039800
C        8.05221000       2.78933000      13.87493000       0.01383800      -0.01389300      -0.00793400
C        7.24697000       5.11385000      13.87420000       0.00157500       0.01281300       0.00593200
C        6.44179000       7.43827000      13.87398000      -0.01831000      -0.00329000       0.00540200
C        7.51538000       6.50856000      13.87482000       0.02407500      -0.01953400      -0.01379100
C       -4.56290000       8.83298000      13.87522000      -0.00583600       0.03263600      -0.01765200
C        0.26841000       1.39471000      13.87763000      -0.05009600      -0.18169000       0.03480100
C       -0.53677000       3.71914000      13.87765000      -0.14384400       0.11256200       0.03487200
C       -1.34201000       6.04366000      13.87522000       0.00376500      -0.00667400      -0.01738200
C       -2.14730000       8.36808000      13.87486000       0.01227400       0.02590100      -0.01012700
C        2.68401000       0.92981000      13.87350000       0.15719100      -0.13516600      -0.01041100
C        1.87883000       3.25423000      13.87765000       0.19591500       0.08044900       0.03501000
C        1.07359000       5.57875000      13.87350000       0.01606100       0.19426100      -0.01003400
C        0.26841000       7.90317000      13.87485000       0.02015500      -0.00620900      -0.01152400
C        5.09972000       0.46490000      13.87485000       0.01057100      -0.00213700      -0.01142100
C        4.29449000       2.78942000      13.87522000      -0.02605000       0.02082400      -0.01741000
C        3.48931000       5.11385000      13.87522000      -0.00356000      -0.03846300      -0.01717300
C        2.68407000       7.43837000      13.87486000      -0.01142600       0.02290700      -0.01011100
C        7.51544000       0.00000000      13.87486000      -0.02975000       0.01739100      -0.01164400
C        6.71020000       2.32452000      13.87486000       0.00519400      -0.04661100      -0.00996300
C        5.90491000       4.64894000      13.87481000       0.00748200      -0.00042600      -0.01370200
C        5.09967000       6.97346000      13.87481000      -0.01666100       0.02013800      -0.01406400
C        4.29449000       9.29789000      13.87522000       0.02681000      -0.00754600      -0.01778800
C        9.12580000       1.85962000      13.87350000      -0.16261200      -0.05478800      -0.01043700
C        8.32062000       4.18404000      13.87522000       0.01229500       0.01510600      -0.01717000
C        0.00000000       0.00000000      10.12677000      -0.03240400      -0.18979900       0.00044000
C       -0.80524000       2.32452000      10.12306000      -0.18255000      -0.06920300      -0.03713900
C       -1.61042000       4.64894000      10.12732000      -0.14861100       0.11754500      -0.00616900
C       -2.41566000       6.97346000      10.12543000      -0.02655800      -0.02244900       0.00040300
C       -3.22084000       9.29789000      10.12547000       0.00130200       0.01987200       0.01128000
C        1.61048000       1.85962000      10.12324000       0.13925800      -0.12919000      -0.03446200
C        0.80518000       4.18404000      10.12266000       0.03850100       0.18705000      -0.04377200
C       -0.00006000       6.50856000      10.12545000       0.02059900      -0.02363600       0.01117400
C       -0.80524000       8.83298000      10.12601000      -0.01879100       0.00059200      -0.00260900
C        4.02607000       1.39471000      10.12506000      -0.02666800      -0.00985600       0.00783200
C        3.22089000       3.71914000      10.12715000       0.17450600       0.06643600      -0.00733300
C        2.41566000       6.04366000      10.12561000      -0.02286200      -0.00724000       0.00120100
C        1.61048000       8.36808000      10.12547000       0.00164100      -0.01610700       0.00411800
C        6.44179000       0.92981000      10.12584000       0.01002500       0.01078600      -0.00382600
C        5.63661000       3.25423000      10.12598000      -0.00775000       0.02873300      -0.00664900
C        4.83137000       5.57875000      10.12543000       0.00532700      -0.01266500       0.00203400
C        4.02607000       7.90317000      10.12583000       0.02535100      -0.01194500      -0.00792500
C        8.85739000       0.46490000      10.12565000       0.00919200       0.02235700       0.00039800
C        8.05221000       2.78933000      10.12507000       0.01383800      -0.01389300       0.00793400
C        7.24697000       5.11385000      10.12580000       0.00157500       0.01281300      -0.00593200
C        6.44179000       7.43827000      10.12602000      -0.01831000      -0.00329000      -0.00540200
C        7.51538000       6.50856000      10.12518000       0.02407500      -0.01953400       0.01379100
C       -4.56290000       8.83298000      10.12478000      -0.00583600       0.03263600       0.01765200
C        0.26841000       1.39471000      10.12237000      -0.05009600      -0.18169000      -0.03480100
C       -0.53677000       3.71914000      10.12235000      -0.14384400       0.11256200      -0.03487200
C       -1.34201000       6.04366000      10.12478000       0.00376500      -0.00667400       0.01738200
C       -2.14730000       8.36808000      10.12514000       0.01227400       0.02590100       0.01012700
C        2.68401000       0.92981000      10.12650000       0.15719100      -0.13516600       0.01041100
C        1.87883000       3.25423000      10.12235000       0.19591500       0.08044900      -0.03501000
C        1.07359000       5.57875000      10.12650000       0.01606100       0.19426100       0.01003400
C        0.26841000       7.90317000      10.12515000       0.02015500      -0.00620900       0.01152400
C        5.09972000       0.46490000      10.12515000       0.01057100      -0.00213700       0.01142100
C        4.29449000       2.78942000      10.12478000      -0.02605000       0.02082400       0.01741000
C        3.48931000       5.11385000      10.12478000      -0.00356000      -0.03846300       0.01717300
C        2.68407000       7.43837000      10.12514000      -0.01142600       0.02290700       0.01011100
C        7.51544000       0.00000000      10.12514000      -0.02975000       0.01739100       0.01164400
C        6.71020000       2.32452000      10.12514000       0.00519400      -0.04661100       0.00996300
C        5.90491000       4.64894000      10.12519000       0.00748200      -0.00042600       0.01370200
C        5.09967000       6.97346000      10.12519000      -0.01666100       0.02013800       0.01406400
C        4.29449000       9.29789000      10.12478000       0.02681000      -0.00754600       0.01778800
C        9.12580000       1.85962000      10.12650000      -0.16261200      -0.05478800       0.01043700
C        8.32062000       4.18404000      10.12478000       0.01229500       0.01510600       0.01717000
Li       0.53694000       2.78938000      12.00000000       0.00287600       0.00031600      -0.00000000
85
Lattice="11.273099899 0.0 0.0 -5.63654995 9.762790892 0.0 0.0 0.0 24.0" Properties=species:S:1:pos:R:3:forces:R:3 stress="-0.004418064717774716 1.737636140645899e-05 -0.0 1.737636140645899e-05 -0.004403646831693925 -0.0 -0.0 -0.0 0.004624471424567676" free_energy=-782.34028444 energy=-782.3362873 pbc="T T T"
C        0.00000000       0.00000000      13.87202000      -0.03236300      -0.18955000       0.02420800
C       -0.80524000       2.32452000      13.87826000      -0.18242000      -0.06921500       0.03693300
C       -1.61042000       4.64894000      13.87110000      -0.14839500       0.11736200       0.03458600
C       -2.41566000       6.97346000      13.87428000      -0.02653100      -0.02238300       0.00532100
C       -3.22084000       9.29789000      13.87421000       0.00126700       0.01979100      -0.00120400
C        1.61048000       1.85962000      13.87795000       0.13914700      -0.12916800       0.03553600
C        0.80518000       4.18404000      13.87894000       0.03848700       0.18694300       0.04083700
C       -0.00006000       6.50856000      13.87424000       0.02047200      -0.02355400      -0.00121500
C       -0.80524000       8.83298000      13.87330000      -0.01876800       0.00058200       0.01013500
C        4.02607000       1.39471000      13.87489000      -0.02658600      -0.00982800      -0.01229800
C        3.22089000       3.71914000      13.87139000       0.17426400       0.06637900       0.03451500
C        2.41566000       6.04366000      13.87398000      -0.02272000      -0.00722300      -0.00190700
C        1.61048000       8.36808000      13.87421000       0.00164700      -0.01608100      -0.00034000
C        6.44179000       0.92981000      13.87359000       0.01000600       0.01076300       0.01017700
C        5.63661000       3.25423000      13.87335000      -0.00772300       0.02867600       0.01621400
C        4.83137000       5.57875000      13.87427000       0.00533000      -0.01261300       0.00268600
C        4.02607000       7.90317000      13.87360000       0.02528700      -0.01195900       0.01648800
C        8.85739000       0.46490000      13.87391000       0.00918900       0.02223700      -0.00065200
C        8.05221000       2.78933000      13.87489000       0.01378500      -0.01382600      -0.01240100
C        7.24697000       5.11385000      13.87365000       0.00155000       0.01277000       0.01322000
C        6.44179000       7.43827000      13.87328000      -0.01824900      -0.00330900       0.01430400
C        7.51538000       6.50856000      13.87470000       0.02403900      -0.01950800      -0.02072500
C       -4.56290000       8.83298000      13.87538000      -0.00570900       0.03256000      -0.03286700
C        0.26841000       1.39471000      13.87943000      -0.03841700      -0.18274900       0.01124900
C       -0.53677000       3.71914000      13.87945000      -0.14848000       0.12313800       0.01125000
C       -1.34201000       6.04366000      13.87537000       0.00385300      -0.00656700      -0.03231300
C       -2.14730000       8.36808000      13.87476000       0.01231000       0.02585600      -0.01503900
C        2.68401000       0.92981000      13.87248000       0.15843800      -0.13750600       0.00755600
C        1.87883000       3.25423000      13.87945000       0.18878800       0.07105000       0.01136700
C        1.07359000       5.57875000      13.87248000       0.01349200       0.19429000       0.00814200
C        0.26841000       7.90317000      13.87475000       0.02012600      -0.00617000      -0.01732500
C        5.09972000       0.46490000      13.87475000       0.01061700      -0.00215800      -0.01713000
C        4.29449000       2.78942000      13.87537000      -0.02597300       0.02074600      -0.03238800
C        3.48931000       5.11385000      13.87537000      -0.00359800      -0.03833500      -0.03201300
C        2.68407000       7.43837000      13.87476000      -0.01137600       0.02293100      -0.01502300
C        7.51544000       0.00000000      13.87476000      -0.02977500       0.01736800      -0.01762900
C        6.71020000       2.32452000      13.87476000       0.00513400      -0.04660100      -0.01478200
C        5.90491000       4.64894000      13.87469000       0.00751300      -0.00042300      -0.02046800
C        5.09967000       6.97346000      13.87469000      -0.01666900       0.02011800      -0.02106600
C        4.29449000       9.29789000      13.87537000       0.02666800      -0.00753800      -0.03302400
C        9.12580000       1.85962000      13.87248000      -0.16122700      -0.05259300       0.00748700
C        8.32062000       4.18404000      13.87537000       0.01218700       0.01504600      -0.03202000
C        0.00000000       0.00000000      10.12798000      -0.03236300      -0.18955000      -0.02420800
C       -0.80524000       2.32452000      10.12174000      -0.18242000      -0.06921500      -0.03693300
C       -1.61042000       4.64894000      10.12890000      -0.14839500       0.11736200      -0.03458600
C       -2.41566000       6.97346000      10.12572000      -0.02653100      -0.02238300      -0.00532100
C       -3.22084000       9.29789000      10.12579000       0.00126700       0.01979100       0.00120400
C        1.61048000       1.85962000      10.12205000       0.13914700      -0.12916800      -0.03553600
C        0.80518000       4.18404000      10.12106000       0.03848700       0.18694300      -0.04083700
C       -0.00006000       6.50856000      10.12576000       0.02047200      -0.02355400       0.00121500
C       -0.80524000       8.83298000      10.12670000      -0.01876800       0.00058200      -0.01013500
C        4.02607000       1.39471000      10.12511000      -0.02658600      -0.00982800       0.01229800
C        3.22089000       3.71914000      10.12861000       0.17426400       0.06637900      -0.03451500
C        2.41566000       6.04366000      10.12602000      -0.02272000      -0.00722300       0.00190700
C        1.61048000       8.36808000      10.12579000       0.00164700      -0.01608100       0.00034000
C        6.44179000       0.92981000      10.12641000       0.01000600       0.01076300      -0.01017700
C        5.63661000       3.25423000      10.12665000      -0.00772300       0.02867600      -0.01621400
C        4.83137000       5.57875000      10.12573000       0.00533000      -0.01261300      -0.00268600
C        4.02607000       7.90317000      10.12640000       0.02528700      -0.01195900      -0.01648800
C        8.85739000       0.46490000      10.12609000       0.00918900       0.02223700       0.00065200
C        8.05221000       2.78933000      10.12511000       0.01378500      -0.01382600       0.01240100
C        7.24697000       5.11385000      10.12635000       0.00155000       0.01277000      -0.01322000
C        6.44179000       7.43827000      10.12672000      -0.01824900      -0.00330900      -0.01430400
C        7.51538000       6.50856000      10.12530000       0.02403900      -0.01950800       0.02072500
C       -4.56290000       8.83298000      10.12462000      -0.00570900       0.03256000       0.03286700
C        0.26841000       1.39471000      10.12057000      -0.03841700      -0.18274900      -0.01124900
C       -0.53677000       3.71914000      10.12055000      -0.14848000       0.12313800      -0.01125000
C       -1.34201000       6.04366000      10.12463000       0.00385300      -0.00656700       0.03231300
C       -2.14730000       8.36808000      10.12524000       0.01231000       0.02585600       0.01503900
C        2.68401000       0.92981000      10.12752000       0.15843800      -0.13750600      -0.00755600
C        1.87883000       3.25423000      10.12055000       0.18878800       0.07105000      -0.01136700
C        1.07359000       5.57875000      10.12752000       0.01349200       0.19429000      -0.00814200
C        0.26841000       7.90317000      10.12525000       0.02012600      -0.00617000       0.01732500
C        5.09972000       0.46490000      10.12525000       0.01061700      -0.00215800       0.01713000
C        4.29449000       2.78942000      10.12463000      -0.02597300       0.02074600       0.03238800
C        3.48931000       5.11385000      10.12463000      -0.00359800      -0.03833500       0.03201300
C        2.68407000       7.43837000      10.12524000      -0.01137600       0.02293100       0.01502300
C        7.51544000       0.00000000      10.12524000      -0.02977500       0.01736800       0.01762900
C        6.71020000       2.32452000      10.12524000       0.00513400      -0.04660100       0.01478200
C        5.90491000       4.64894000      10.12531000       0.00751300      -0.00042300       0.02046800
C        5.09967000       6.97346000      10.12531000      -0.01666900       0.02011800       0.02106600
C        4.29449000       9.29789000      10.12463000       0.02666800      -0.00753800       0.03302400
C        9.12580000       1.85962000      10.12752000      -0.16122700      -0.05259300      -0.00748700
C        8.32062000       4.18404000      10.12463000       0.01218700       0.01504600       0.03202000
Li       0.53704000       2.78938000      12.00000000       0.00276300       0.00050200       0.00000000
85
Lattice="11.273099899 0.0 0.0 -5.63654995 9.762790892 0.0 0.0 0.0 24.0" Properties=species:S:1:pos:R:3:forces:R:3 stress="-0.004400981707297174 1.750743309810254e-05 -0.0 1.750743309810254e-05 -0.00438608322501369 -0.0 -0.0 -0.0 0.004641360948262316" free_energy=-782.34163154 energy=-782.33763491 pbc="T T T"
C        0.00000000       0.00000000      13.87193000      -0.03235800      -0.18941900       0.01870600
C       -0.80524000       2.32452000      13.88122000      -0.18210000      -0.06917400       0.02302400
C       -1.61042000       4.64894000      13.87111000      -0.14823400       0.11727800       0.02809200
C       -2.41566000       6.97346000      13.87424000      -0.02655000      -0.02228800      -0.01299800
C       -3.22084000       9.29789000      13.87384000       0.00120500       0.01960600      -0.01221700
C        1.61048000       1.85962000      13.88073000       0.13886300      -0.12904800       0.02360600
C        0.80518000       4.18404000      13.88234000       0.03838100       0.18650800      -0.00012700
C       -0.00006000       6.50856000      13.87388000       0.02024100      -0.02338200      -0.01316400
C       -0.80524000       8.83298000      13.87309000      -0.01874200       0.00057300      -0.00020100
C        4.02607000       1.39471000      13.87430000      -0.02637500      -0.00975900      -0.02140500
C        3.22089000       3.71914000      13.87151000       0.17419600       0.06637400       0.02695600
C        2.41566000       6.04366000      13.87349000      -0.02246000      -0.00716800      -0.01158900
C        1.61048000       8.36808000      13.87388000       0.00165100      -0.01603700      -0.00945800
C        6.44179000       0.92981000      13.87349000       0.00997900       0.01075200      -0.00133400
C        5.63661000       3.25423000      13.87342000      -0.00764600       0.02866900      -0.00332600
C        4.83137000       5.57875000      13.87410000       0.00538800      -0.01258700      -0.01522500
C        4.02607000       7.90317000      13.87379000       0.02523900      -0.01201800      -0.00468800
C        8.85739000       0.46490000      13.87344000       0.00916700       0.02202200      -0.01164100