101
Lattice="12.300000191 0.0 0.0 -6.150000095 10.652112632 0.0 0.0 0.0 24.0" Properties=species:S:1:pos:R:3:forces:R:3 stress="-0.003906853912819248 4.7585265575733963e-05 3.4952451104946246e-07 4.7585265575733963e-05 -0.0038519036664749714 -1.997282920282643e-07 3.4952451104946246e-07 -1.997282920282643e-07 0.00045675987934126267" free_energy=-930.16013005 energy=-930.15341446 pbc="T T T"
C        0.00000000       0.00000000      13.67500000       0.00420900      -0.33023200       0.15981000
C       11.07000000       2.13042000      13.67500000      -0.27984300       0.16156700       0.15968400
C       -2.46000000       4.26085000      13.67500000      -0.01760700      -0.02334800      -0.00826600
C       -3.69000000       6.39127000      13.67500000      -0.01281200      -0.01161000      -0.00932900
C       -4.92000000       8.52169000      13.67500000      -0.02432900      -0.01178800      -0.00828800
C        2.46000000       0.00000000      13.67500000       0.06636400      -0.03831500       0.00674200
C        1.23000000       2.13042000      13.67500000       0.28809300       0.16147100       0.15981000
C       -0.00000000       4.26085000      13.67500000       0.00409300       0.06902500       0.00670200
C       -1.23000000       6.39127000      13.67500000      -0.01959400      -0.01221300      -0.00811300
C       -2.46000000       8.52169000      13.67500000      -0.01668100      -0.01854100      -0.00810900
C        4.92000000       0.00000000      13.67500000       0.00771700       0.02371700      -0.00810900
C        3.69000000       2.13042000      13.67500000      -0.00195600       0.02696400      -0.00828800
C        2.46000000       4.26085000      13.67500000       0.02655200      -0.02313400      -0.00824200
C        1.23000000       6.39127000      13.67500000       0.02849200      -0.01170800      -0.00815600
C        0.00000000       8.52169000      13.67500000       0.00476400      -0.00275000      -0.00957300
C        7.38000000       0.00000000      13.67500000       0.00078000       0.02307600      -0.00811300
C        6.15000000       2.13042000      13.67500000       0.00364900       0.01690100      -0.00932900
C        4.92000000       4.26085000      13.67500000       0.00638200      -0.00174000      -0.01133400
C        3.69000000       6.39127000      13.67500000       0.02069100      -0.01194600      -0.00928300
C        2.46000000       8.52169000      13.67500000       0.02438500      -0.01882100      -0.00815600
C        9.84000000       0.00000000      13.67500000      -0.05773100      -0.03805700       0.00670200
C        8.61000000       2.13042000      13.67500000       0.01141700       0.02692200      -0.00826600
C        7.38000000       4.26085000      13.67500000       0.00198600      -0.00114700      -0.01133200
C        6.15000000       6.39127000      13.67500000       0.00469800      -0.00465700      -0.01133400
C        4.92000000       8.52169000      13.67500000       0.03331100      -0.01142800      -0.00824200
C        0.00006000       1.42025000      13.67500000      -0.00358700       0.00207100       3.78399700
C       -1.22994000       3.55067000      13.67500000      -0.02136500       0.15106400       0.00949800
C       -2.45994000       5.68109000      13.67500000       0.02532600       0.02204100       0.00714500
C       -3.68994000       7.81151000      13.67500000       0.02735000       0.01758400       0.00719800
C       -4.91994000       9.94194000      13.67500000       0.11596600      -0.08620200       0.00943100
C        2.46006000       1.42025000      13.67500000       0.13263600      -0.05732900       0.00943100
C        1.23006000       3.55067000      13.67500000       0.01297200       0.15049800       0.00947300
C        0.00006000       5.68109000      13.67500000      -0.00477600      -0.00066100      -0.00075400
C       -1.22994000       7.81151000      13.67500000      -0.00202100       0.00307300       0.00481900
C       -2.45994000       9.94194000      13.67500000      -0.00723300       0.00417600      -0.00069900
C        4.92006000       1.42025000      13.67500000      -0.00155300      -0.03247700       0.00719800
C        3.69006000       3.55067000      13.67500000      -0.00968500      -0.00075900       0.00873200
C        2.46006000       5.68109000      13.67500000      -0.03274600       0.02206400       0.00717100
C        1.23006000       7.81151000      13.67500000      -0.00629400       0.00363400       0.00482000
C        0.00006000       9.94194000      13.67500000      -0.00367200       0.00021400       0.00481900
C        7.38006000       1.42025000      13.67500000      -0.00642500      -0.03295300       0.00714500
C        6.15006000       3.55067000      13.67500000      -0.00426500      -0.01477100       0.00562200
C        4.92006000       5.68109000      13.67500000      -0.01908000       0.01101600       0.00557200
C        3.69006000       7.81151000      13.67500000      -0.03548100       0.01732600       0.00717100
C        2.46006000       9.94194000      13.67500000      -0.00181600       0.00446700      -0.00075400
C        9.84006000       1.42025000      13.67500000      -0.14150800      -0.05703000       0.00949800
C        8.61006000       3.55067000      13.67500000       0.00176100      -0.00101700       0.00877700
C        7.38006000       5.68109000      13.67500000       0.01065900       0.01107900       0.00562200
C        6.15006000       7.81151000      13.67500000      -0.00418500       0.00876700       0.00873200
C        4.92006000       9.94194000      13.67500000      -0.12384900      -0.08648300       0.00947300
C        0.00000000       0.00000000      10.32500000      -0.00443700      -0.28639300      -0.18882200
C       11.07000000       2.13042000      10.32500000      -0.25441100       0.14688400      -0.18870200
C       -2.46000000       4.26085000      10.32500000       0.00131000      -0.02869700       0.00274200
C       -3.69000000       6.39127000      10.32500000       0.02181000       0.01823900       0.00972800
C       -4.92000000       8.52169000      10.32500000      -0.02802000       0.02212000       0.00275700
C        2.46000000       0.00000000      10.32500000       0.17572600      -0.10145500       0.04131300
C        1.23000000       2.13042000      10.32500000       0.24580500       0.14703900      -0.18882200
C       -0.00000000       4.26085000      10.32500000      -0.00429400       0.20988000       0.04136400
C       -1.23000000       6.39127000      10.32500000       0.01166700       0.01253700       0.00738900
C       -2.46000000       8.52169000      10.32500000       0.01188600       0.01111000       0.00738900
C        4.92000000       0.00000000      10.32500000      -0.00367900      -0.01584900       0.00738900
C        3.69000000       2.13042000      10.32500000      -0.03316600       0.01320600       0.00275700
C        2.46000000       4.26085000      10.32500000      -0.00970400      -0.02844500       0.00271600
C        1.23000000       6.39127000      10.32500000      -0.01990200       0.01289100       0.00743600
C        0.00000000       8.52169000      10.32500000      -0.00385600       0.00222600       0.01004500
C        7.38000000       0.00000000      10.32500000      -0.00502400      -0.01637200       0.00738900
C        6.15000000       2.13042000      10.32500000      -0.00489000      -0.02800800       0.00972800
C        4.92000000       4.26085000      10.32500000      -0.01514000      -0.00433400       0.01072000
C        3.69000000       6.39127000      10.32500000      -0.03112700       0.01797100       0.00968300
C        2.46000000       8.52169000      10.32500000      -0.02111500       0.01079100       0.00743600
C        9.84000000       0.00000000      10.32500000      -0.18390900      -0.10122200       0.04136400
C        8.61000000       2.13042000      10.32500000       0.02550800       0.01321400       0.00274200
C        7.38000000       4.26085000      10.32500000       0.00653000      -0.00377000       0.01072000
C        6.15000000       6.39127000      10.32500000      -0.00381700       0.01527900       0.01072000
C        4.92000000       8.52169000      10.32500000       0.01978200       0.02262600       0.00271600
C        1.22994000       0.71018000      10.32500000       0.24471400      -0.14128500      -0.18521900
C       -0.00006000       2.84060000      10.32500000       0.00447400       0.27593900      -0.18510700
C       -1.23006000       4.97102000      10.32500000       0.03504000      -0.02681700      -0.01055700
C       -2.46006000       7.10144000      10.32500000      -0.02085800      -0.01656900      -0.00422200
C       -3.69006000       9.23187000      10.32500000      -0.00124500       0.03646900      -0.01051000
C        3.68994000       0.71018000      10.32500000      -0.03220600      -0.01715600      -0.01051000
C        2.45994000       2.84060000      10.32500000       0.16830100       0.09322200       0.02849900
C        1.22994000       4.97102000      10.32500000      -0.02646500      -0.02721200      -0.01048700
C       -0.00006000       7.10144000      10.32500000       0.00409200      -0.01629300      -0.00262600
C       -1.23006000       9.23187000      10.32500000      -0.00817300       0.00471900      -0.00256900
C        6.14994000       0.71018000      10.32500000       0.00392000       0.02634800      -0.00422200
C        4.91994000       2.84060000      10.32500000       0.00125300       0.01210100      -0.00555300
C        3.68994000       4.97102000      10.32500000       0.01463500      -0.01231500      -0.00555700
C        2.45994000       7.10144000      10.32500000       0.02914800      -0.01682900      -0.00425600
C        1.22994000       9.23187000      10.32500000       0.01615600       0.00460300      -0.00262600
C        8.60994000       0.71018000      10.32500000       0.04074500      -0.01693700      -0.01055700
C        7.37994000       2.84060000      10.32500000       0.00724400       0.01260800      -0.00549700
C        6.14994000       4.97102000      10.32500000       0.00460000      -0.00265600      -0.00258200
C        4.91994000       7.10144000      10.32500000       0.01798200      -0.00651600      -0.00555700
C        3.68994000       9.23187000      10.32500000       0.01033400       0.03652500      -0.01048700
C       11.06994000       0.71018000      10.32500000      -0.23673300      -0.14184400      -0.18510700
C        9.83994000       2.84060000      10.32500000      -0.16080800       0.09284200       0.02846200
C        8.60994000       4.97102000      10.32500000      -0.00729700      -0.01257700      -0.00549700
C        7.37994000       7.10144000      10.32500000      -0.00985300      -0.00713600      -0.00555300
C        6.14994000       9.23187000      10.32500000       0.00341800      -0.19236400       0.02849900
Li       0.00006000       1.42025000      12.00000000      -0.00010700       0.00006200      -3.36922800
101
Lattice="12.300000191 0.0 0.0 -6.150000095 10.652112632 0.0 0.0 0.0 24.0" Properties=species:S:1:pos:R:3:forces:R:3 stress="-0.003998616579987984 4.7416744829335105e-05 6.491169490918587e-07 4.7416744829335105e-05 -0.003943872303444861 -3.7449054755299545e-07 6.491169490918587e-07 -3.7449054755299545e-07 0.0019317158669152391" free_energy=-930.48857148 energy=-930.48183856 pbc="T T T"
C        0.00000000       0.00000000      13.68271000       0.00422200      -0.11459700       1.01118000
C       11.07000000       2.13042000      13.68270000      -0.09326800       0.05384800       1.01172400
C       -2.46000000       4.26085000      13.67460000      -0.01241000      -0.01368000      -0.08568600
C       -3.69000000       6.39127000      13.67455000      -0.01003200      -0.01003400       0.01369200
C       -4.92000000       8.52169000      13.67460000      -0.01335300      -0.01217100      -0.08569400
C        2.46000000       0.00000000      13.67533000       0.05923900      -0.03420200       0.07138300
C        1.23000000       2.13042000      13.68271000       0.10135500       0.05364200       1.01118000
C       -0.00000000       4.26085000      13.67532000       0.00411700       0.06073400       0.07142500
C       -1.23000000       6.39127000      13.67461000      -0.01566400      -0.01081400      -0.00041400
C       -2.46000000       8.52169000      13.67461000      -0.01347300      -0.01588400      -0.00038400
C        4.92000000       0.00000000      13.67461000       0.00702000       0.01961000      -0.00038400
C        3.69000000       2.13042000      13.67460000       0.00386400       0.01764900      -0.08569400
C        2.46000000       4.26085000      13.67460000       0.02137100      -0.01347200      -0.08577300
C        1.23000000       6.39127000      13.67461000       0.02461200      -0.01031300      -0.00044400
C        0.00000000       8.52169000      13.67454000       0.00479800      -0.00277000       0.00265800
C        7.38000000       0.00000000      13.67461000       0.00153300       0.01897200      -0.00041400
C        6.15000000       2.13042000      13.67455000       0.00367400       0.01370500       0.01369200
C        4.92000000       4.26085000      13.67445000       0.00590200      -0.00204800       0.01170700
C        3.69000000       6.39127000      13.67455000       0.01794200      -0.01035900       0.01364300
C        2.46000000       8.52169000      13.67461000       0.02123700      -0.01615800      -0.00044400
C        9.84000000       0.00000000      13.67532000      -0.05053900      -0.03393200       0.07142500
C        8.61000000       2.13042000      13.67460000       0.00564200       0.01758700      -0.08568600
C        7.38000000       4.26085000      13.67445000       0.00252700      -0.00145900       0.01174800
C        6.15000000       6.39127000      13.67445000       0.00472500      -0.00408700       0.01170700
C        4.92000000       8.52169000      13.67460000       0.02235300      -0.01177200      -0.08577300
C        0.00006000       1.42025000      13.85755000      -0.00379900       0.00219300      -1.59961900
C       -1.22994000       3.55067000      13.67546000      -0.02951300       0.14668600      -0.02155100
C       -2.45994000       5.68109000      13.67534000       0.02014200       0.01996200      -0.01132200
C       -3.68994000       7.81151000      13.67535000       0.02294200       0.01417600      -0.01131200
C       -4.91994000       9.94194000      13.67545000       0.10806800      -0.09100800      -0.02149600
C        2.46006000       1.42025000      13.67545000       0.13284900      -0.04808600      -0.02149600
C        1.23006000       3.55067000      13.67546000       0.02097700       0.14591600      -0.02175700
C        0.00006000       5.68109000      13.67496000      -0.00478700       0.00101200       0.00194700
C       -1.22994000       7.81151000      13.67523000      -0.00208800       0.00305500      -0.00575500
C       -2.45994000       9.94194000      13.67497000      -0.00582100       0.00336100       0.00199800
C        4.92006000       1.42025000      13.67535000      -0.00080600      -0.02695600      -0.01131200
C        3.69006000       3.55067000      13.67542000      -0.00931400      -0.00052800       0.00986300
C        2.46006000       5.68109000      13.67535000      -0.02762200       0.01993500      -0.01152100
C        1.23006000       7.81151000      13.67523000      -0.00627500       0.00362300      -0.00578800
C        0.00006000       9.94194000      13.67523000      -0.00369000       0.00028000      -0.00575500
C        7.38006000       1.42025000      13.67534000      -0.00721600      -0.02742500      -0.01132200
C        6.15006000       3.55067000      13.67527000      -0.00428800      -0.01282600      -0.00842300
C        4.92006000       5.68109000      13.67527000      -0.01742800       0.01006200      -0.00842700
C        3.69006000       7.81151000      13.67535000      -0.03107500       0.01395400      -0.01152100
C        2.46006000       9.94194000      13.67496000      -0.00327000       0.00364000       0.00194700
C        9.84006000       1.42025000      13.67546000      -0.14179100      -0.04778400      -0.02155100
C        8.61006000       3.55067000      13.67542000       0.00135000      -0.00078000       0.00987200
C        7.38006000       5.68109000      13.67527000       0.00896300       0.01012600      -0.00842300
C        6.15006000       7.81151000      13.67542000      -0.00419900       0.00833000       0.00986300
C        4.92006000       9.94194000      13.67546000      -0.11587800      -0.09112500      -0.02175700
C        0.00000000       0.00000000      10.31589000      -0.00438200      -0.42364300      -0.31295800
C       11.07000000       2.13042000      10.31590000      -0.37319400       0.21546300      -0.31289600
C       -2.46000000       4.26085000      10.32513000       0.00308200      -0.03078500       0.00853100
C       -3.69000000       6.39127000      10.32547000       0.02659800       0.02097100      -0.00090600
C       -4.92000000       8.52169000      10.32513000      -0.02891500       0.02464700       0.00854200
C        2.46000000       0.00000000      10.32699000       0.19496900      -0.11256600      -0.02810700
C        1.23000000       2.13042000      10.31589000       0.36469500       0.21561600      -0.31295800
C       -0.00000000       4.26085000      10.32700000      -0.00426200       0.23206200      -0.02800600
C       -1.23000000       6.39127000      10.32536000       0.01497400       0.01322800      -0.00054700
C       -2.46000000       8.52169000      10.32536000       0.01416700       0.01358300      -0.00051600
C        4.92000000       0.00000000      10.32536000      -0.00468000      -0.01906100      -0.00051600
C        3.69000000       2.13042000      10.32513000      -0.03580300       0.01271800       0.00854200
C        2.46000000       4.26085000      10.32513000      -0.01141300      -0.03054200       0.00856600
C        1.23000000       6.39127000      10.32536000      -0.02315300       0.01358200      -0.00050400
C        0.00000000       8.52169000      10.32548000      -0.00382800       0.00221000       0.00296100
C        7.38000000       0.00000000      10.32536000      -0.00396900      -0.01958200      -0.00054700
C        6.15000000       2.13042000      10.32547000      -0.00486200      -0.03352000      -0.00090600
C        4.92000000       4.26085000      10.32552000      -0.01585700      -0.00478400       0.00122800
C        3.69000000       6.39127000      10.32547000      -0.03585400       0.02070000      -0.00092600
C        2.46000000       8.52169000      10.32536000      -0.02333900       0.01326000      -0.00050400
C        9.84000000       0.00000000      10.32700000      -0.20310300      -0.11234000      -0.02800600
C        8.61000000       2.13042000      10.32513000       0.02820200       0.01272300       0.00853100
C        7.38000000       4.26085000      10.32552000       0.00731000      -0.00422000       0.00126200
C        6.15000000       6.39127000      10.32552000      -0.00378600       0.01612500       0.00122800
C        4.92000000       8.52169000      10.32513000       0.02074400       0.02515500       0.00856600
C        1.22994000       0.71018000      10.31606000       0.36006500      -0.20788400      -0.30981700
C       -0.00006000       2.84060000      10.31607000       0.00443600       0.40908200      -0.30959300
C       -1.23006000       4.97102000      10.32449000       0.03746400      -0.03104700       0.01391900
C       -2.46006000       7.10144000      10.32480000      -0.02525800      -0.01908900       0.00471100
C       -3.69006000       9.23187000      10.32449000      -0.00371800       0.04071100       0.01392200
C        3.68994000       0.71018000      10.32449000      -0.03711600      -0.01713500       0.01392200
C        2.45994000       2.84060000      10.32637000       0.18283200       0.10163000      -0.02610400
C        1.22994000       4.97102000      10.32449000      -0.02893300      -0.03145100       0.01396900
C       -0.00006000       7.10144000      10.32487000       0.00407400      -0.01776200       0.00674500
C       -1.23006000       9.23187000      10.32488000      -0.00947600       0.00547100       0.00674700
C        6.14994000       0.71018000      10.32480000       0.00390300       0.03141900       0.00471100
C        4.91994000       2.84060000      10.32473000      -0.00099900       0.01441700       0.00639300
C        3.68994000       4.97102000      10.32473000       0.01548600      -0.01539300       0.00637800
C        2.45994000       7.10144000      10.32479000       0.03351100      -0.01934700       0.00473800
C        1.22994000       9.23187000      10.32487000       0.01741900       0.00535300       0.00674500
C        8.60994000       0.71018000      10.32449000       0.04562000      -0.01692100       0.01391900
C        7.37994000       2.84060000      10.32473000       0.00946500       0.01491900       0.00640100
C        6.14994000       4.97102000      10.32488000       0.00458200      -0.00264500       0.00953000
C        4.91994000       7.10144000      10.32473000       0.02107300      -0.00571500       0.00637800
C        3.68994000       9.23187000      10.32449000       0.01277100       0.04078200       0.01396900
C       11.06994000       0.71018000      10.31607000      -0.35205800      -0.20838300      -0.30959300
C        9.83994000       2.84060000      10.32637000      -0.17537200       0.10125100      -0.02613200
C        8.60994000       4.97102000      10.32473000      -0.00818800      -0.01565700       0.00640100
C        7.37994000       7.10144000      10.32473000      -0.01298500      -0.00634300       0.00639300
C        6.14994000       9.23187000      10.32637000       0.00340200      -0.20915200      -0.02610400
Li       0.00006000       1.42025000      11.83746000      -0.00016400       0.00009400       0.80654600
101
Lattice="12.300000191 0.0 0.0 -6.150000095 10.652112632 0.0 0.0 0.0 24.0" Properties=species:S:1:pos:R:3:forces:R:3 stress="-0.003975760173568999 4.7497884447971596e-05 5.492528030777268e-07 4.7497884447971596e-05 -0.003920916032879863 -3.183169654200462e-07 5.492528030777268e-07 -3.183169654200462e-07 0.001626006749929477" free_energy=-930.54915091 energy=-930.54242229 pbc="T T T"
C        0.00000000       0.00000000      13.68025000       0.00422300      -0.22045100       0.72826100
C       11.07000000       2.13042000      13.68025000      -0.18482500       0.10670900       0.72859900
C       -2.46000000       4.26085000      13.67473000      -0.01289500      -0.01668200      -0.06115200
C       -3.69000000       6.39127000      13.67469000      -0.01112900      -0.01065600       0.00671700
C       -4.92000000       8.52169000      13.67473000      -0.01619700      -0.01106800      -0.06116300
C        2.46000000       0.00000000      13.67522000       0.05811700      -0.03355400       0.05197400
C        1.23000000       2.13042000      13.68025000       0.19302800       0.10656900       0.72826100
C       -0.00000000       4.26085000      13.67522000       0.00410900       0.05945800       0.05198900
C       -1.23000000       6.39127000      13.67473000      -0.01564800      -0.01159400      -0.00259200
C       -2.46000000       8.52169000      13.67473000      -0.01415200      -0.01546200      -0.00257000
C        4.92000000       0.00000000      13.67473000       0.00631500       0.01998700      -0.00257000
C        3.69000000       2.13042000      13.67473000       0.00148700       0.01956100      -0.06116300
C        2.46000000       4.26085000      13.67473000       0.02185500      -0.01647100      -0.06120700
C        1.23000000       6.39127000      13.67473000       0.02457600      -0.01109400      -0.00262500
C        0.00000000       8.52169000      13.67469000       0.00478800      -0.00276400      -0.00088300
C        7.38000000       0.00000000      13.67473000       0.00221600       0.01934800      -0.00259200
C        6.15000000       2.13042000      13.67469000       0.00366400       0.01496600       0.00671700
C        4.92000000       4.26085000      13.67463000       0.00558800      -0.00221800       0.00471700
C        3.69000000       6.39127000      13.67470000       0.01903200      -0.01098800       0.00669500
C        2.46000000       8.52169000      13.67473000       0.02189500      -0.01573700      -0.00262500
C        9.84000000       0.00000000      13.67522000      -0.04943800      -0.03328800       0.05198900
C        8.61000000       2.13042000      13.67473000       0.00800000       0.01950900      -0.06115200
C        7.38000000       4.26085000      13.67463000       0.00281800      -0.00162700       0.00474500
C        6.15000000       6.39127000      13.67463000       0.00471500      -0.00373100       0.00471700
C        4.92000000       8.52169000      13.67473000       0.02519100      -0.01069200      -0.06120700
C        0.00006000       1.42025000      13.79932000      -0.00351500       0.00202900      -0.24069200
C       -1.22994000       3.55067000      13.67531000      -0.02460100       0.15255100      -0.01101200
C       -2.45994000       5.68109000      13.67523000       0.02180400       0.02004300      -0.00529900
C       -3.68994000       7.81151000      13.67524000       0.02384700       0.01556500      -0.00527500
C       -4.91994000       9.94194000      13.67531000       0.11561300      -0.08970000      -0.01099600
C        2.46006000       1.42025000      13.67531000       0.13548900      -0.05527400      -0.01099600
C        1.23006000       3.55067000      13.67531000       0.01612600       0.15189400      -0.01118400
C        0.00006000       5.68109000      13.67498000      -0.00478600       0.00362100       0.00112000
C       -1.22994000       7.81151000      13.67516000      -0.00168400       0.00328600      -0.00217800
C       -2.45994000       9.94194000      13.67498000      -0.00355700       0.00205400       0.00117200
C        4.92006000       1.42025000      13.67524000      -0.00155600      -0.02843500      -0.00527500
C        3.69006000       3.55067000      13.67529000      -0.00916700      -0.00044500       0.00969700
C        2.46006000       5.68109000      13.67524000      -0.02926700       0.02004700      -0.00543900
C        1.23006000       7.81151000      13.67516000      -0.00667400       0.00385300      -0.00220000
C        0.00006000       9.94194000      13.67516000      -0.00368700      -0.00018500      -0.00217800
C        7.38006000       1.42025000      13.67523000      -0.00645600      -0.02890400      -0.00529900
C        6.15006000       3.55067000      13.67518000      -0.00428400      -0.01401900      -0.00370600
C        4.92006000       5.68109000      13.67518000      -0.01845700       0.01065600      -0.00372500
C        3.69006000       7.81151000      13.67524000      -0.03199500       0.01532300      -0.00543900
C        2.46006000       9.94194000      13.67498000      -0.00552900       0.00233500       0.00112000
C        9.84006000       1.42025000      13.67531000      -0.14441300      -0.05497100      -0.01101200
C        8.61006000       3.55067000      13.67529000       0.00120900      -0.00069800       0.00971800
C        7.38006000       5.68109000      13.67518000       0.00999800       0.01072000      -0.00370600
C        6.15006000       7.81151000      13.67529000      -0.00419800       0.00816100       0.00969700
C        4.92006000       9.94194000      13.67531000      -0.12348100      -0.08991200      -0.01118400
C        0.00000000       0.00000000      10.31880000      -0.00439900      -0.37288700      -0.27257100
C       11.07000000       2.13042000      10.31880000      -0.32926900       0.19010400      -0.27248900
C       -2.46000000       4.26085000      10.32509000       0.00244000      -0.03011000       0.00680700
C       -3.69000000       6.39127000      10.32532000       0.02496700       0.02004100       0.00260400
C       -4.92000000       8.52169000      10.32509000      -0.02866100       0.02377200       0.00682000
C        2.46000000       0.00000000      10.32636000       0.18966500      -0.10950300      -0.00969700
C        1.23000000       2.13042000      10.31880000       0.32073000       0.19025300      -0.27257100
C       -0.00000000       4.26085000      10.32636000      -0.00427300       0.22595100      -0.00961400
C       -1.23000000       6.39127000      10.32524000       0.01387500       0.01319600       0.00208800
C       -2.46000000       8.52169000      10.32524000       0.01358000       0.01266300       0.00211100
C        4.92000000       0.00000000      10.32524000      -0.00417700      -0.01809200       0.00211100
C        3.69000000       2.13042000      10.32509000      -0.03491700       0.01293600       0.00682000
C        2.46000000       4.26085000      10.32509000      -0.01079300      -0.02986400       0.00682300
C        1.23000000       6.39127000      10.32524000      -0.02207300       0.01355000       0.00213300
C        0.00000000       8.52169000      10.32533000      -0.00383800       0.00221600       0.00530400
C        7.38000000       0.00000000      10.32524000      -0.00449100      -0.01861400       0.00208800
C        6.15000000       2.13042000      10.32532000      -0.00487200      -0.03164200       0.00260400
C        4.92000000       4.26085000      10.32535000      -0.01560900      -0.00462800       0.00436500
C        3.69000000       6.39127000      10.32532000      -0.03424400       0.01977100       0.00257700
C        2.46000000       8.52169000      10.32524000      -0.02277100       0.01234100       0.00213300
C        9.84000000       0.00000000      10.32636000      -0.19781600      -0.10927500      -0.00961400
C        8.61000000       2.13042000      10.32509000       0.02729600       0.01294200       0.00680700