101
Lattice="12.300000191 0.0 0.0 -6.150000095 10.652112632 0.0 0.0 0.0 24.0" Properties=species:S:1:pos:R:3:forces:R:3 stress="-0.003991395153929337 4.575650340185017e-05 -0.0 4.575650340185017e-05 -0.003938560779178734 -0.0 -0.0 -0.0 0.004871603978407023" free_energy=-931.01770851 energy=-931.01439789 pbc="T T T"
C        0.00000000       0.00000000      13.87500000      -0.16465400      -0.10017000       0.02348800
C       11.07000000       2.13042000      13.87500000      -0.15763300       0.09100900      -0.06321600
C       -2.46000000       4.26085000      13.87500000      -0.01031300      -0.01131200      -0.03453000
C       -3.69000000       6.39127000      13.87500000      -0.01063200      -0.01068500      -0.03444000
C       -4.92000000       8.52169000      13.87500000       0.00430100      -0.18949300      -0.06328300
C        2.46000000       0.00000000      13.87500000       0.17332600      -0.10007000       0.02311200
C        1.23000000       2.13042000      13.87500000       0.00442200       0.19267900       0.02348800
C       -0.00000000       4.26085000      13.87500000       0.02220600      -0.01778400      -0.02732100
C       -1.23000000       6.39127000      13.87500000      -0.01966200      -0.01665100      -0.03508300
C       -2.46000000       8.52169000      13.87500000      -0.00015400       0.02095200      -0.02707400
C        4.92000000       0.00000000      13.87500000      -0.01822200      -0.01034300      -0.02707400
C        3.69000000       2.13042000      13.87500000       0.16625600       0.09102200      -0.06328300
C        2.46000000       4.26085000      13.87500000      -0.01367300      -0.01821000      -0.02703100
C        1.23000000       6.39127000      13.87500000       0.00426400      -0.01327200      -0.03569400
C        0.00000000       8.52169000      13.87500000      -0.00511200       0.00295200      -0.03562200
C        7.38000000       0.00000000      13.87500000       0.00458900       0.02535300      -0.03508300
C        6.15000000       2.13042000      13.87500000       0.00393700       0.01455000      -0.03444000
C        4.92000000       4.26085000      13.87500000       0.01908000      -0.01108200      -0.03474400
C        3.69000000       6.39127000      13.87500000       0.02853600      -0.01647500      -0.03486700
C        2.46000000       8.52169000      13.87500000       0.01362600       0.00294300      -0.03569400
C        9.84000000       0.00000000      13.87500000       0.02650400      -0.01033900      -0.02732100
C        8.61000000       2.13042000      13.87500000       0.00464000       0.01458700      -0.03453000
C        7.38000000       4.26085000      13.87500000       0.00429800      -0.00248100      -0.03651200
C        6.15000000       6.39127000      13.87500000       0.01913700      -0.01098300      -0.03474400
C        4.92000000       8.52169000      13.87500000       0.00893400       0.02094600      -0.02703100
C        0.00006000       1.42025000      13.87500000      -0.17329700       0.10005300       0.02323300
C       -1.22994000       3.55067000      13.87500000      -0.00014500      -0.02089000      -0.02708700
C       -2.45994000       5.68109000      13.87500000       0.02005300       0.01643500      -0.03540500
C       -3.68994000       7.81151000      13.87500000      -0.02251600       0.01782900      -0.02703000
C       -4.91994000       9.94194000      13.87500000      -0.00433200      -0.19260300       0.02308500
C        2.46006000       1.42025000      13.87500000       0.16463300       0.10005400       0.02308500
C        1.23006000       3.55067000      13.87500000      -0.00401000       0.18928900      -0.06293600
C        0.00006000       5.68109000      13.87500000       0.01018900       0.01099300      -0.03444500
C       -1.22994000       7.81151000      13.87500000       0.01061100       0.01113500      -0.03473200
C       -2.45994000       9.94194000      13.87500000       0.15741000      -0.09088000      -0.06271700
C        4.92006000       1.42025000      13.87500000      -0.02669900       0.01058500      -0.02703000
C        3.69006000       3.55067000      13.87500000      -0.00888600      -0.02092600      -0.02733800
C        2.46006000       5.68109000      13.87500000      -0.01897500       0.01094600      -0.03451500
C        1.23006000       7.81151000      13.87500000      -0.00443000       0.00255700      -0.03652100
C        0.00006000       9.94194000      13.87500000      -0.00433800      -0.01475700      -0.03473200
C        7.38006000       1.42025000      13.87500000      -0.00420600      -0.02558400      -0.03540500
C        6.15006000       3.55067000      13.87500000      -0.01393900      -0.00301500      -0.03534000
C        4.92006000       5.68109000      13.87500000      -0.02852000       0.01646600      -0.03536500
C        3.69006000       7.81151000      13.87500000      -0.01896700       0.01096000      -0.03451500
C        2.46006000       9.94194000      13.87500000      -0.00442600      -0.01432000      -0.03444500
C        9.84006000       1.42025000      13.87500000       0.01801900       0.01057000      -0.02708700
C        8.61006000       3.55067000      13.87500000       0.00537500      -0.00310300      -0.03568400
C        7.38006000       5.68109000      13.87500000      -0.00435800       0.01357900      -0.03534000
C        6.15006000       7.81151000      13.87500000       0.01368000       0.01815900      -0.02733800
C        4.92006000       9.94194000      13.87500000      -0.16593500      -0.09117200      -0.06293600
C        0.00000000       0.00000000      10.12500000      -0.16465400      -0.10017000      -0.02348800
C       11.07000000       2.13042000      10.12500000      -0.15763300       0.09100900       0.06321600
C       -2.46000000       4.26085000      10.12500000      -0.01031300      -0.01131200       0.03453000
C       -3.69000000       6.39127000      10.12500000      -0.01063200      -0.01068500       0.03444000
C       -4.92000000       8.52169000      10.12500000       0.00430100      -0.18949300       0.06328300
C        2.46000000       0.00000000      10.12500000       0.17332600      -0.10007000      -0.02311200
C        1.23000000       2.13042000      10.12500000       0.00442200       0.19267900      -0.02348800
C       -0.00000000       4.26085000      10.12500000       0.02220600      -0.01778400       0.02732100
C       -1.23000000       6.39127000      10.12500000      -0.01966200      -0.01665100       0.03508300
C       -2.46000000       8.52169000      10.12500000      -0.00015400       0.02095200       0.02707400
C        4.92000000       0.00000000      10.12500000      -0.01822200      -0.01034300       0.02707400
C        3.69000000       2.13042000      10.12500000       0.16625600       0.09102200       0.06328300
C        2.46000000       4.26085000      10.12500000      -0.01367300      -0.01821000       0.02703100
C        1.23000000       6.39127000      10.12500000       0.00426400      -0.01327200       0.03569400
C        0.00000000       8.52169000      10.12500000      -0.00511200       0.00295200       0.03562200
C        7.38000000       0.00000000      10.12500000       0.00458900       0.02535300       0.03508300
C        6.15000000       2.13042000      10.12500000       0.00393700       0.01455000       0.03444000
C        4.92000000       4.26085000      10.12500000       0.01908000      -0.01108200       0.03474400
C        3.69000000       6.39127000      10.12500000       0.02853600      -0.01647500       0.03486700
C        2.46000000       8.52169000      10.12500000       0.01362600       0.00294300       0.03569400
C        9.84000000       0.00000000      10.12500000       0.02650400      -0.01033900       0.02732100
C        8.61000000       2.13042000      10.12500000       0.00464000       0.01458700       0.03453000
C        7.38000000       4.26085000      10.12500000       0.00429800      -0.00248100       0.03651200
C        6.15000000       6.39127000      10.12500000       0.01913700      -0.01098300       0.03474400
C        4.92000000       8.52169000      10.12500000       0.00893400       0.02094600       0.02703100
C        0.00006000       1.42025000      10.12500000      -0.17329700       0.10005300      -0.02323300
C       -1.22994000       3.55067000      10.12500000      -0.00014500      -0.02089000       0.02708700
C       -2.45994000       5.68109000      10.12500000       0.02005300       0.01643500       0.03540500
C       -3.68994000       7.81151000      10.12500000      -0.02251600       0.01782900       0.02703000
C       -4.91994000       9.94194000      10.12500000      -0.00433200      -0.19260300      -0.02308500
C        2.46006000       1.42025000      10.12500000       0.16463300       0.10005400      -0.02308500
C        1.23006000       3.55067000      10.12500000      -0.00401000       0.18928900       0.06293600
C        0.00006000       5.68109000      10.12500000       0.01018900       0.01099300       0.03444500
C       -1.22994000       7.81151000      10.12500000       0.01061100       0.01113500       0.03473200
C       -2.45994000       9.94194000      10.12500000       0.15741000      -0.09088000       0.06271700
C        4.92006000       1.42025000      10.12500000      -0.02669900       0.01058500       0.02703000
C        3.69006000       3.55067000      10.12500000      -0.00888600      -0.02092600       0.02733800
C        2.46006000       5.68109000      10.12500000      -0.01897500       0.01094600       0.03451500
C        1.23006000       7.81151000      10.12500000      -0.00443000       0.00255700       0.03652100
C        0.00006000       9.94194000      10.12500000      -0.00433800      -0.01475700       0.03473200
C        7.38006000       1.42025000      10.12500000      -0.00420600      -0.02558400       0.03540500
C        6.15006000       3.55067000      10.12500000      -0.01393900      -0.00301500       0.03534000
C        4.92006000       5.68109000      10.12500000      -0.02852000       0.01646600       0.03536500
C        3.69006000       7.81151000      10.12500000      -0.01896700       0.01096000       0.03451500
C        2.46006000       9.94194000      10.12500000      -0.00442600      -0.01432000       0.03444500
C        9.84006000       1.42025000      10.12500000       0.01801900       0.01057000       0.02708700
C        8.61006000       3.55067000      10.12500000       0.00537500      -0.00310300       0.03568400
C        7.38006000       5.68109000      10.12500000      -0.00435800       0.01357900       0.03534000
C        6.15006000       7.81151000      10.12500000       0.01368000       0.01815900       0.02733800
C        4.92006000       9.94194000      10.12500000      -0.16593500      -0.09117200       0.06293600
Li       1.22995000       0.71016000      12.00000000       0.00001200      -0.00000700      -0.00000000
101
Lattice="12.300000191 0.0 0.0 -6.150000095 10.652112632 0.0 0.0 0.0 24.0" Properties=species:S:1:pos:R:3:forces:R:3 stress="-0.003918381980174754 4.568784680146545e-05 -0.0 4.568784680146545e-05 -0.003865622503533663 -0.0 -0.0 -0.0 0.0051934973285562" free_energy=-931.0226951 energy=-931.01946553 pbc="T T T"
C        0.00000000       0.00000000      13.87613000      -0.16458500      -0.10014100       0.01130000
C       11.07000000       2.13042000      13.87195000      -0.15770900       0.09105300      -0.02179000
C       -2.46000000       4.26085000      13.87333000      -0.01032000      -0.01128500      -0.02278500
C       -3.69000000       6.39127000      13.87334000      -0.01059500      -0.01070200      -0.02266300
C       -4.92000000       8.52169000      13.87195000       0.00430100      -0.18960500      -0.02189900
C        2.46000000       0.00000000      13.87611000       0.17327700      -0.10004200       0.01118400
C        1.23000000       2.13042000      13.87613000       0.00443200       0.19260600       0.01130000
C       -0.00000000       4.26085000      13.87368000       0.02207600      -0.01775000      -0.02926400
C       -1.23000000       6.39127000      13.87331000      -0.01969400      -0.01665500      -0.02404300
C       -2.46000000       8.52169000      13.87369000      -0.00017400       0.02080000      -0.02920000
C        4.92000000       0.00000000      13.87369000      -0.01810100      -0.01024900      -0.02920000
C        3.69000000       2.13042000      13.87195000       0.16635300       0.09107700      -0.02189900
C        2.46000000       4.26085000      13.87370000      -0.01352800      -0.01816700      -0.02928700
C        1.23000000       6.39127000      13.87328000       0.00428300      -0.01327800      -0.02648100
C        0.00000000       8.52169000      13.87328000      -0.00512100       0.00295700      -0.02661100
C        7.38000000       0.00000000      13.87331000       0.00457600       0.02538300      -0.02404300
C        6.15000000       2.13042000      13.87334000       0.00397100       0.01452600      -0.02266300
C        4.92000000       4.26085000      13.87332000       0.01907400      -0.01106200      -0.02280800
C        3.69000000       6.39127000      13.87332000       0.02855500      -0.01648600      -0.02394200
C        2.46000000       8.52169000      13.87328000       0.01364100       0.00293000      -0.02648100
C        9.84000000       0.00000000      13.87368000       0.02641000      -0.01024300      -0.02926400
C        8.61000000       2.13042000      13.87333000       0.00461300       0.01458000      -0.02278500
C        7.38000000       4.26085000      13.87324000       0.00431700      -0.00249300      -0.02759800
C        6.15000000       6.39127000      13.87332000       0.01911700      -0.01098800      -0.02280800
C        4.92000000       8.52169000      13.87370000       0.00897000       0.02079900      -0.02928700
C        0.00006000       1.42025000      13.87612000      -0.17322800       0.10001300       0.01127700
C       -1.22994000       3.55067000      13.87369000      -0.00009700      -0.02075400      -0.02936300
C       -2.45994000       5.68109000      13.87329000       0.02006200       0.01644700      -0.02397000
C       -3.68994000       7.81151000      13.87370000      -0.02238200       0.01780100      -0.02927900
C       -4.91994000       9.94194000      13.87611000      -0.00434700      -0.19252700       0.01111900
C        2.46006000       1.42025000      13.87611000       0.16455900       0.10002800       0.01111900
C        1.23006000       3.55067000      13.87196000      -0.00404300       0.18942600      -0.02174400
C        0.00006000       5.68109000      13.87334000       0.01019100       0.01098500      -0.02275300
C       -1.22994000       7.81151000      13.87332000       0.01059800       0.01113400      -0.02273000
C       -2.45994000       9.94194000      13.87197000       0.15750400      -0.09093500      -0.02173800
C        4.92006000       1.42025000      13.87370000      -0.02660700       0.01048300      -0.02927900
C        3.69006000       3.55067000      13.87368000      -0.00892100      -0.02079000      -0.02943700
C        2.46006000       5.68109000      13.87333000      -0.01898700       0.01095600      -0.02262500
C        1.23006000       7.81151000      13.87324000      -0.00441800       0.00255100      -0.02777400
C        0.00006000       9.94194000      13.87332000      -0.00434300      -0.01474500      -0.02273000
C        7.38006000       1.42025000      13.87329000      -0.00421300      -0.02559700      -0.02397000
C        6.15006000       3.55067000      13.87330000      -0.01393700      -0.00300700      -0.02647000
C        4.92006000       5.68109000      13.87329000      -0.02852800       0.01647100      -0.02405600
C        3.69006000       7.81151000      13.87333000      -0.01898100       0.01096600      -0.02262500
C        2.46006000       9.94194000      13.87334000      -0.00441800      -0.01431900      -0.02275300
C        9.84006000       1.42025000      13.87369000       0.01792500       0.01046100      -0.02936300
C        8.61006000       3.55067000      13.87328000       0.00536100      -0.00309500      -0.02650600
C        7.38006000       5.68109000      13.87330000      -0.00436400       0.01357400      -0.02647000
C        6.15006000       7.81151000      13.87368000       0.01354400       0.01812100      -0.02943700
C        4.92006000       9.94194000      13.87196000      -0.16606900      -0.09121200      -0.02174400
C        0.00000000       0.00000000      10.12387000      -0.16458500      -0.10014100      -0.01130000
C       11.07000000       2.13042000      10.12805000      -0.15770900       0.09105300       0.02179000
C       -2.46000000       4.26085000      10.12667000      -0.01032000      -0.01128500       0.02278500
C       -3.69000000       6.39127000      10.12666000      -0.01059500      -0.01070200       0.02266300
C       -4.92000000       8.52169000      10.12805000       0.00430100      -0.18960500       0.02189900
C        2.46000000       0.00000000      10.12389000       0.17327700      -0.10004200      -0.01118400
C        1.23000000       2.13042000      10.12387000       0.00443200       0.19260600      -0.01130000
C       -0.00000000       4.26085000      10.12632000       0.02207600      -0.01775000       0.02926400
C       -1.23000000       6.39127000      10.12669000      -0.01969400      -0.01665500       0.02404300
C       -2.46000000       8.52169000      10.12631000      -0.00017400       0.02080000       0.02920000
C        4.92000000       0.00000000      10.12631000      -0.01810100      -0.01024900       0.02920000
C        3.69000000       2.13042000      10.12805000       0.16635300       0.09107700       0.02189900
C        2.46000000       4.26085000      10.12630000      -0.01352800      -0.01816700       0.02928700
C        1.23000000       6.39127000      10.12672000       0.00428300      -0.01327800       0.02648100
C        0.00000000       8.52169000      10.12672000      -0.00512100       0.00295700       0.02661100
C        7.38000000       0.00000000      10.12669000       0.00457600       0.02538300       0.02404300
C        6.15000000       2.13042000      10.12666000       0.00397100       0.01452600       0.02266300
C        4.92000000       4.26085000      10.12668000       0.01907400      -0.01106200       0.02280800
C        3.69000000       6.39127000      10.12668000       0.02855500      -0.01648600       0.02394200
C        2.46000000       8.52169000      10.12672000       0.01364100       0.00293000       0.02648100
C        9.84000000       0.00000000      10.12632000       0.02641000      -0.01024300       0.02926400
C        8.61000000       2.13042000      10.12667000       0.00461300       0.01458000       0.02278500
C        7.38000000       4.26085000      10.12676000       0.00431700      -0.00249300       0.02759800
C        6.15000000       6.39127000      10.12668000       0.01911700      -0.01098800       0.02280800
C        4.92000000       8.52169000      10.12630000       0.00897000       0.02079900       0.02928700
C        0.00006000       1.42025000      10.12388000      -0.17322800       0.10001300      -0.01127700
C       -1.22994000       3.55067000      10.12631000      -0.00009700      -0.02075400       0.02936300
C       -2.45994000       5.68109000      10.12671000       0.02006200       0.01644700       0.02397000
C       -3.68994000       7.81151000      10.12630000      -0.02238200       0.01780100       0.02927900
C       -4.91994000       9.94194000      10.12389000      -0.00434700      -0.19252700      -0.01111900
C        2.46006000       1.42025000      10.12389000       0.16455900       0.10002800      -0.01111900
C        1.23006000       3.55067000      10.12804000      -0.00404300       0.18942600       0.02174400
C        0.00006000       5.68109000      10.12666000       0.01019100       0.01098500       0.02275300
C       -1.22994000       7.81151000      10.12668000       0.01059800       0.01113400       0.02273000
C       -2.45994000       9.94194000      10.12803000       0.15750400      -0.09093500       0.02173800
C        4.92006000       1.42025000      10.12630000      -0.02660700       0.01048300       0.02927900
C        3.69006000       3.55067000      10.12632000      -0.00892100      -0.02079000       0.02943700
C        2.46006000       5.68109000      10.12667000      -0.01898700       0.01095600       0.02262500
C        1.23006000       7.81151000      10.12676000      -0.00441800       0.00255100       0.02777400
C        0.00006000       9.94194000      10.12668000      -0.00434300      -0.01474500       0.02273000
C        7.38006000       1.42025000      10.12671000      -0.00421300      -0.02559700       0.02397000
C        6.15006000       3.55067000      10.12670000      -0.01393700      -0.00300700       0.02647000
C        4.92006000       5.68109000      10.12671000      -0.02852800       0.01647100       0.02405600
C        3.69006000       7.81151000      10.12667000      -0.01898100       0.01096600       0.02262500
C        2.46006000       9.94194000      10.12666000      -0.00441800      -0.01431900       0.02275300
C        9.84006000       1.42025000      10.12631000       0.01792500       0.01046100       0.02936300
C        8.61006000       3.55067000      10.12672000       0.00536100      -0.00309500       0.02650600
C        7.38006000       5.68109000      10.12670000      -0.00436400       0.01357400       0.02647000
C        6.15006000       7.81151000      10.12632000       0.01354400       0.01812100       0.02943700
C        4.92006000       9.94194000      10.12804000      -0.16606900      -0.09121200       0.02174400
Li       1.22995000       0.71015000      12.00000000      -0.00000200       0.00000100      -0.00000000
101
Lattice="12.300000191 0.0 0.0 -6.150000095 10.652112632 0.0 0.0 0.0 24.0" Properties=species:S:1:pos:R:3:forces:R:3 stress="-0.003911472629572401 4.558174114632543e-05 -0.0 4.558174114632543e-05 -0.003858837983113828 -0.0 -0.0 -0.0 0.005195706822786763" free_energy=-931.02840531 energy=-931.02530321 pbc="T T T"
C        0.00000000       0.00000000      13.87791000      -0.16498100      -0.10038600      -0.00780200
C       11.07000000       2.13042000      13.86716000      -0.15743700       0.09089600       0.02278000
C       -2.46000000       4.26085000      13.87072000      -0.01031800      -0.01122700      -0.02446500
C       -3.69000000       6.39127000      13.87073000      -0.01051900      -0.01072700      -0.02429500
C       -4.92000000       8.52169000      13.86715000       0.00430500      -0.18931700       0.02259100
C        2.46000000       0.00000000      13.87787000       0.17369500      -0.10028300      -0.00751500
C        1.23000000       2.13042000      13.87791000       0.00444600       0.19307100      -0.00780200
C       -0.00000000       4.26085000      13.87161000       0.02200600      -0.01772100      -0.05236300
C       -1.23000000       6.39127000      13.87065000      -0.01973100      -0.01665900      -0.02683000
C       -2.46000000       8.52169000      13.87164000      -0.00016300       0.02069400      -0.05260200
C        4.92000000       0.00000000      13.87164000      -0.01800300      -0.01020600      -0.05260200
C        3.69000000       2.13042000      13.86715000       0.16610600       0.09093000       0.02259100
C        2.46000000       4.26085000      13.87165000      -0.01343700      -0.01812600      -0.05288700
C        1.23000000       6.39127000      13.87057000       0.00430900      -0.01329300      -0.03214900
C        0.00000000       8.52169000      13.87058000      -0.00513700       0.00296600      -0.03258600
C        7.38000000       0.00000000      13.87065000       0.00456100       0.02541700      -0.02683000
C        6.15000000       2.13042000      13.87073000       0.00403100       0.01447300      -0.02429500
C        4.92000000       4.26085000      13.87069000       0.01905700      -0.01101200      -0.02417800
C        3.69000000       6.39127000      13.87068000       0.02857700      -0.01649900      -0.02692600
C        2.46000000       8.52169000      13.87057000       0.01366600       0.00291500      -0.03214900
C        9.84000000       0.00000000      13.87161000       0.02635000      -0.01019800      -0.05236300
C        8.61000000       2.13042000      13.87072000       0.00456300       0.01454900      -0.02446500
C        7.38000000       4.26085000      13.87047000       0.00434400      -0.00250800      -0.03378500
C        6.15000000       6.39127000      13.87069000       0.01906500      -0.01099700      -0.02417800
C        4.92000000       8.52169000      13.87165000       0.00897900       0.02070000      -0.05288700
C        0.00006000       1.42025000      13.87788000      -0.17361800       0.10023900      -0.00746000
C       -1.22994000       3.55067000      13.87164000      -0.00007400      -0.02067100      -0.05299500
C       -2.45994000       5.68109000      13.87061000       0.02006300       0.01646000      -0.02613000
C       -3.68994000       7.81151000      13.87165000      -0.02231100       0.01778200      -0.05287000
C       -4.91994000       9.94194000      13.87786000      -0.00437000      -0.19298600      -0.00764000
C        2.46006000       1.42025000      13.87786000       0.16494600       0.10027800      -0.00764000
C        1.23006000       3.55067000      13.86719000      -0.00407100       0.18916000       0.02245100
C        0.00006000       5.68109000      13.87073000       0.01016700       0.01098000      -0.02451500
C       -1.22994000       7.81151000      13.87069000       0.01056600       0.01111000      -0.02399900
C       -2.45994000       9.94194000      13.86722000       0.15726000      -0.09079400       0.02212000
C        4.92006000       1.42025000      13.87165000      -0.02655500       0.01043100      -0.05287000
C        3.69006000       3.55067000      13.87161000      -0.00893100      -0.02070500      -0.05277500
C        2.46006000       5.68109000      13.87072000      -0.01897900       0.01097300      -0.02408100
C        1.23006000       7.81151000      13.87047000      -0.00440400       0.00254300      -0.03421500
C        0.00006000       9.94194000      13.87069000      -0.00433800      -0.01470600      -0.02399900
C        7.38006000       1.42025000      13.87061000      -0.00422300      -0.02560600      -0.02613000
C        6.15006000       3.55067000      13.87062000      -0.01394300      -0.00299900      -0.03268100
C        4.92006000       5.68109000      13.87061000      -0.02853500       0.01647500      -0.02640700
C        3.69006000       7.81151000      13.87072000      -0.01899200       0.01095000      -0.02408100
C        2.46006000       9.94194000      13.87073000      -0.00442500      -0.01429500      -0.02451500
C        9.84006000       1.42025000      13.87164000       0.01786400       0.01040000      -0.05299500
C        8.61006000       3.55067000      13.87057000       0.00534400      -0.00308500      -0.03222000
C        7.38006000       5.68109000      13.87062000      -0.00437500       0.01357400      -0.03268100
C        6.15006000       7.81151000      13.87161000       0.01346600       0.01808700      -0.05277500
C        4.92006000       9.94194000      13.86719000      -0.16585200      -0.09105500       0.02245100
C        0.00000000       0.00000000      10.12209000      -0.16498100      -0.10038600       0.00780200
C       11.07000000       2.13042000      10.13284000      -0.15743700       0.09089600      -0.02278000
C       -2.46000000       4.26085000      10.12928000      -0.01031800      -0.01122700       0.02446500
C       -3.69000000       6.39127000      10.12927000      -0.01051900      -0.01072700       0.02429500
C       -4.92000000       8.52169000      10.13285000       0.00430500      -0.18931700      -0.02259100
C        2.46000000       0.00000000      10.12213000       0.17369500      -0.10028300       0.00751500
C        1.23000000       2.13042000      10.12209000       0.00444600       0.19307100       0.00780200
C       -0.00000000       4.26085000      10.12839000       0.02200600      -0.01772100       0.05236300
C       -1.23000000       6.39127000      10.12935000      -0.01973100      -0.01665900       0.02683000
C       -2.46000000       8.52169000      10.12836000      -0.00016300       0.02069400       0.05260200
C        4.92000000       0.00000000      10.12836000      -0.01800300      -0.01020600       0.05260200
C        3.69000000       2.13042000      10.13285000       0.16610600       0.09093000      -0.02259100
C        2.46000000       4.26085000      10.12835000      -0.01343700      -0.01812600       0.05288700
C        1.23000000       6.39127000      10.12943000       0.00430900      -0.01329300       0.03214900
C        0.00000000       8.52169000      10.12942000      -0.00513700       0.00296600       0.03258600
C        7.38000000       0.00000000      10.12935000       0.00456100       0.02541700       0.02683000
C        6.15000000       2.13042000      10.12927000       0.00403100       0.01447300       0.02429500
C        4.92000000       4.26085000      10.12931000       0.01905700      -0.01101200       0.02417800
C        3.69000000       6.39127000      10.12932000       0.02857700      -0.01649900       0.02692600
C        2.46000000       8.52169000      10.12943000       0.01366600       0.00291500       0.03214900
C        9.84000000       0.00000000      10.12839000       0.02635000      -0.01019800       0.05236300
C        8.61000000       2.13042000      10.12928000       0.00456300       0.01454900       0.02446500
C        7.38000000       4.26085000      10.12953000       0.00434400      -0.00250800       0.03378500
C        6.15000000       6.39127000      10.12931000       0.01906500      -0.01099700       0.02417800