109
Lattice="12.782400131 0.0 0.0 -6.391200066 11.069883235 0.0 0.0 0.0 24.0" Properties=species:S:1:pos:R:3:forces:R:3 stress="-0.0040816910664534896 3.5701432200052237e-06 1.0672980605260372e-06 3.5701432200052237e-06 -0.004080910877812754 5.991848760847928e-07 1.0672980605260372e-06 5.991848760847928e-07 0.0005594951195533012" free_energy=-1004.36366074 energy=-1004.35813678 pbc="T T T"
C        0.00000000       0.00000000      13.67500000      -0.16434400      -0.28471400       0.17701300
C       -2.13038000       3.68992000      13.67500000       0.01721600       0.01781100       0.02928300
C        8.52158000       7.37996000      13.67500000      -0.01612200      -0.00728100       0.02726200
C        4.26076000       0.00000000      13.67500000       0.00489800       0.02280500       0.02928500
C        2.13038000       3.68992000      13.67500000       0.04056300       0.07264000       0.04218500
C       -0.00006000       7.37996000      13.67500000      -0.00242200       0.00661600      -0.00159700
C        8.52164000       0.00000000      13.67500000       0.00170500      -0.01747600       0.02726200
C        6.39126000       3.68992000      13.67500000       0.00675600       0.00352700      -0.00159600
C        4.26082000       7.37996000      13.67500000       0.00561800       0.00997900       0.02560200
C       -0.00000000       2.45995000      13.67500000      -0.16714200       0.28271700       0.18102800
C       -2.13044000       6.14998000      13.67500000       0.01311900      -0.00030200       0.01610600
C       -4.26082000       9.83991000      13.67500000       0.03994500      -0.06626200       0.02832900
C        4.26076000       2.45995000      13.67500000       0.00857700      -0.02198700       0.02728700
C        2.13031000       6.14998000      13.67500000      -0.02028300       0.01799900       0.01988400
C       -0.00006000       9.83991000      13.67500000       0.00747100      -0.00903900       0.01948600
C        8.52164000       2.45995000      13.67500000       0.00296500       0.01626000       0.02738000
C        6.39120000       6.14998000      13.67500000      -0.00161500      -0.00081800       0.02698100
C        4.26082000       9.83991000      13.67500000       0.01869700      -0.01929200       0.01333500
C        2.13038000       1.22997000      13.67500000       0.32852600      -0.00329500       0.18102900
C        0.00000000       4.91990000      13.67500000      -0.02475300      -0.00209300       0.02729100
C       -2.13044000       8.60993000      13.67500000       0.01282100       0.01072600       0.02738100
C        6.39126000       1.22997000      13.67500000      -0.01013100       0.01108000       0.01610700
C        4.26089000       4.91990000      13.67500000       0.02087400      -0.00732500       0.01988700
C        2.13044000       8.60993000      13.67500000      -0.00311100      -0.00200300       0.02697900
C       10.65202000       1.22997000      13.67500000      -0.07727000       0.00147700       0.02833100
C        8.52164000       4.91990000      13.67500000      -0.01301300       0.00334500       0.01948900
C        6.39120000       8.60993000      13.67500000      -0.02586600       0.00649200       0.01333200
C       11.36215000       2.45995000      13.67500000      -0.14731800       0.01723000       0.03698400
C       -3.55070000       6.14998000      13.67500000      -0.01284500       0.00098800       0.03228200
C       -5.68107000       9.83991000      13.67500000       0.04969900      -0.13120600       0.02659200
C        2.84050000       2.45995000      13.67500000       0.08020300       0.11779800       0.04116300
C        0.71006000       6.14998000      13.67500000       0.03070000       0.00506100       0.03207300
C       -1.42032000       9.83991000      13.67500000      -0.00694000      -0.02364800       0.04680900
C        7.10139000       2.45995000      13.67500000      -0.00565200       0.00263600       0.02971300
C        4.97095000       6.14998000      13.67500000       0.00555000      -0.01055700       0.04445500
C        2.84057000       9.83991000      13.67500000      -0.00963400       0.02779000       0.03832900
C        0.71013000       1.22997000      13.67500000      -0.00624500      -0.01057600       3.79860700
C       -1.42032000       4.92001000      13.67500000      -0.00157800       0.00553600       0.04769300
C       -3.55070000       8.60993000      13.67500000      -0.01719300       0.00546300       0.03104100
C        4.97088000       1.22997000      13.67500000       0.01414600      -0.00036900       0.04887300
C        2.84044000       4.92001000      13.67500000      -0.00244600      -0.01748200       0.02735500
C        0.71006000       8.60993000      13.67500000      -0.00389900       0.00409900       0.02902600
C        9.23177000       1.22997000      13.67500000       0.01312600      -0.01206500       0.03104000
C        7.10133000       4.92001000      13.67500000       0.00914300      -0.00804800       0.02902200
C        4.97095000       8.60993000      13.67500000      -0.00344300      -0.00575300       0.03623800
C        2.84050000       0.00000000      13.67500000       0.08823200      -0.11924300       0.03698000
C        0.71013000       3.68992000      13.67500000       0.06123500       0.12789000       0.04116200
C       -1.42032000       7.37996000      13.67500000       0.00492900      -0.00340500       0.02971100
C        7.10139000       0.00000000      13.67500000       0.00724200      -0.01002300       0.03228100
C        4.97101000       3.68992000      13.67500000      -0.01134300       0.02953900       0.03207300
C        2.84057000       7.37996000      13.67500000      -0.01180300       0.00057700       0.04445500
C       11.36215000       0.00000000      13.67500000      -0.13851700      -0.02246700       0.02659500
C        9.23177000       3.68992000      13.67500000      -0.01737600      -0.01792600       0.04681100
C        7.10133000       7.37996000      13.67500000       0.02901600       0.00610000       0.03832900
C        0.00000000       0.00000000      10.32500000      -0.14756700      -0.25553700      -0.20512800
C       -2.13038000       3.68992000      10.32500000       0.02851600       0.00494800      -0.03289600
C        8.52158000       7.37996000      10.32500000       0.01008800      -0.00009000      -0.02990800
C        4.26076000       0.00000000      10.32500000      -0.00992900       0.02703500      -0.03289600
C        2.13038000       3.68992000      10.32500000       0.10188900       0.17623600       0.00338200
C       -0.00006000       7.37996000      10.32500000       0.00996200       0.00789000       0.00174200
C        8.52164000       0.00000000      10.32500000      -0.00320600       0.00969800      -0.02990800
C        6.39126000       3.68992000      10.32500000       0.00394300       0.01358000       0.00174200
C        4.26082000       7.37996000      10.32500000       0.00612300       0.00823600      -0.02463900
C       -0.00000000       2.45995000      10.32500000      -0.14478200       0.25003600      -0.20911400
C       -2.13044000       6.14998000      10.32500000       0.01491900      -0.00755400      -0.01726200
C       -4.26082000       9.83991000      10.32500000       0.09979400      -0.18317900       0.01933800
C        4.26076000       2.45995000      10.32500000      -0.00754500      -0.03128600      -0.03301300
C        2.13031000       6.14998000      10.32500000       0.00903600       0.00097800      -0.02041700
C       -0.00006000       9.83991000      10.32500000       0.00923900      -0.02554400      -0.01934100
C        8.52164000       2.45995000      10.32500000      -0.00490400      -0.01368400      -0.02790900
C        6.39120000       6.14998000      10.32500000       0.01118900      -0.01113300      -0.02683500
C        4.26082000       9.83991000      10.32500000       0.02864500      -0.00457300      -0.01906300
C        2.13038000       1.22997000      10.32500000       0.28876500      -0.00021700      -0.20911500
C        0.00000000       4.91990000      10.32500000      -0.02189700      -0.02503900      -0.03301500
C       -2.13044000       8.60993000      10.32500000      -0.00949800      -0.01087200      -0.02790700
C        6.39126000       1.22997000      10.32500000      -0.01208100       0.00859300      -0.01726000
C        4.26089000       4.91990000      10.32500000      -0.00017600       0.00474400      -0.02041500
C        2.13044000       8.60993000      10.32500000      -0.01326200       0.00364500      -0.02682900
C       10.65202000       1.22997000      10.32500000      -0.20857500      -0.00507500       0.01933600
C        8.52164000       4.91990000      10.32500000      -0.02520300      -0.00769600      -0.01934200
C        6.39120000       8.60993000      10.32500000      -0.01826500       0.02268200      -0.01906000
C       -0.71013000       1.22997000      10.32500000      -0.27678900      -0.00874900      -0.20202700
C       -2.84050000       4.91990000      10.32500000       0.01553800       0.00226200      -0.03290000
C       -4.97095000       8.60993000      10.32500000       0.02230400       0.03357900      -0.03758000
C        3.55063000       1.22997000      10.32500000       0.18393200      -0.01002400      -0.00275900
C        1.42025000       4.91990000      10.32500000       0.02492500      -0.02457500      -0.05021400
C       -0.71019000       8.60993000      10.32500000       0.01954600       0.00844400      -0.02983400
C        7.81152000       1.22997000      10.32500000       0.00932900       0.00115800      -0.04194600
C        5.68114000       4.91990000      10.32500000       0.00456500      -0.00327300      -0.02983700
C        3.55070000       8.60993000      10.32500000       0.02395600      -0.00537900      -0.03659300
C        1.42025000       0.00000000      10.32500000       0.13086200      -0.24419600      -0.20203400
C       -0.71013000       3.68992000      10.32500000      -0.10076900       0.15371800      -0.00275700
C       -2.84057000       7.37996000      10.32500000      -0.00328800       0.00874100      -0.04194800
C        5.68101000       0.00000000      10.32500000      -0.00577200       0.01397300      -0.03290000
C        3.55063000       3.68992000      10.32500000      -0.03386000       0.00824400      -0.05021300
C        1.42019000       7.37996000      10.32500000      -0.00472900       0.00188700      -0.02983800
C        9.94190000       0.00000000      10.32500000       0.01827300       0.03636200      -0.03757700
C        7.81152000       3.68992000      10.32500000      -0.00227600       0.02096600      -0.02983100
C        5.68107000       7.37996000      10.32500000      -0.01595300       0.01850900      -0.03659300
C        1.42025000       2.45995000      10.32500000       0.13997400       0.24220900      -0.21259500
C       -0.71013000       6.14987000      10.32500000      -0.01974300       0.00146800      -0.03033400
C       -2.84057000       9.83991000      10.32500000      -0.04360900       0.00571900      -0.04173300
C        5.68114000       2.45995000      10.32500000       0.00352100      -0.01657200      -0.03033700
C        3.55076000       6.14987000      10.32500000      -0.00611300       0.00263300      -0.02978000
C        1.42032000       9.83991000      10.32500000      -0.00773500      -0.01152100      -0.04457700
C        9.94190000       2.45995000      10.32500000       0.02695300      -0.03504500      -0.04173400
C        7.81152000       6.14987000      10.32500000      -0.01191500      -0.00593100      -0.04339800
C        5.68107000       9.83991000      10.32500000      -0.08873800      -0.15394400       0.01179800
Li       0.71013000       1.22997000      12.00000000       0.00172500       0.00298700      -3.36423200
109
Lattice="12.782400131 0.0 0.0 -6.391200066 11.069883235 0.0 0.0 0.0 24.0" Properties=species:S:1:pos:R:3:forces:R:3 stress="-0.004138326520261754 3.6075922747605235e-06 9.299848597566055e-07 3.6075922747605235e-06 -0.004138850807028329 1.4792376628343323e-06 9.299848597566055e-07 1.4792376628343323e-06 0.0019099454830841583" free_energy=-1004.7005492 energy=-1004.6949252 pbc="T T T"
C        0.00000000       0.00000000      13.68354000      -0.05613200      -0.09726600       1.02669500
C       -2.13038000       3.68992000      13.67641000       0.00795100       0.01297600      -0.04517600
C        8.52158000       7.37996000      13.67632000      -0.01408700      -0.00581800       0.03158000
C        4.26076000       0.00000000      13.67641000       0.00532900       0.01237100      -0.04484100
C        2.13038000       3.68992000      13.67704000       0.03493600       0.06290500       0.10504800
C       -0.00006000       7.37996000      13.67492000      -0.00211400       0.00597600       0.02585500
C        8.52164000       0.00000000      13.67632000       0.00194100      -0.01497500       0.03154600
C        6.39126000       3.68992000      13.67492000       0.00603600       0.00348000       0.02587600
C        4.26082000       7.37996000      13.67624000       0.00453600       0.00812000       0.05533600
C       -0.00000000       2.45995000      13.68373000      -0.05818900       0.10459200       1.02157700
C       -2.13044000       6.14998000      13.67578000       0.01191700       0.00113400       0.04587100
C       -4.26082000       9.83991000      13.67637000       0.03445100      -0.05731100       0.09659800
C        4.26076000       2.45995000      13.67632000      -0.00163800      -0.01587500      -0.05772700
C        2.13031000       6.14998000      13.67596000      -0.01831200       0.01578700       0.03036000
C       -0.00006000       9.83991000      13.67594000       0.00681000      -0.00964100       0.03902500
C        8.52164000       2.45995000      13.67632000       0.01183300       0.00571400       0.02661300
C        6.39120000       6.14998000      13.67630000       0.00079700       0.01029900       0.03532200
C        4.26082000       9.83991000      13.67564000       0.00948200      -0.01517900      -0.06125200
C        2.13038000       1.22997000      13.68373000       0.11978000       0.00200600       1.02159200
C        0.00000000       4.91990000      13.67632000      -0.01435600      -0.00787700      -0.05806100
C       -2.13044000       8.60993000      13.67632000      -0.00074900       0.01314100       0.02661500
C        6.39126000       1.22997000      13.67578000      -0.00829200       0.01076400       0.04622100
C        4.26089000       4.91990000      13.67596000       0.01796900      -0.00671700       0.03033300
C        2.13044000       8.60993000      13.67630000       0.00530500       0.00565100       0.03532000
C       10.65202000       1.22997000      13.67637000      -0.06677700       0.00120400       0.09662600
C        8.52164000       4.91990000      13.67594000      -0.01320800       0.00247900       0.03900700
C        6.39120000       8.60993000      13.67564000      -0.01769900       0.00057700      -0.06125500
C       11.36215000       2.45995000      13.67678000      -0.14144700       0.02024100       0.00250600
C       -3.55070000       6.14998000      13.67656000      -0.01280500       0.00217200       0.02101800
C       -5.68107000       9.83991000      13.67628000       0.03928000      -0.12788100      -0.00578700
C        2.84050000       2.45995000      13.67699000       0.08203000       0.10910500       0.00994000
C        0.71006000       6.14998000      13.67655000       0.02799100       0.00579500       0.01035400
C       -1.42032000       9.83991000      13.67726000      -0.00858400      -0.02249400       0.01547800
C        7.10139000       2.45995000      13.67643000      -0.00770500       0.00036100       0.01457600
C        4.97095000       6.14998000      13.67714000       0.00819700      -0.00667700       0.01970200
C        2.84057000       9.83991000      13.67685000      -0.00636200       0.02509900       0.02091400
C        0.71013000       1.22997000      13.85825000      -0.00254000      -0.00417900      -1.57572900
C       -1.42032000       4.92001000      13.67730000       0.00054000      -0.00007700       0.03723000
C       -3.55070000       8.60993000      13.67650000      -0.01556300       0.00225300       0.03594800
C        4.97088000       1.22997000      13.67736000       0.00728700       0.00063600       0.03654200
C        2.84044000       4.92001000      13.67632000      -0.00206200      -0.01682500       0.03026500
C        0.71006000       8.60993000      13.67640000      -0.00491800       0.00473000       0.01722800
C        9.23177000       1.22997000      13.67650000       0.00953600      -0.01225900       0.03594800
C        7.10133000       4.92001000      13.67640000       0.01020300      -0.00861700       0.01722700
C        4.97095000       8.60993000      13.67675000      -0.00024600      -0.00021800       0.03455000
C        2.84050000       0.00000000      13.67678000       0.08791800      -0.11265300       0.00248000
C        0.71013000       3.68992000      13.67699000       0.05280500       0.12512700       0.00996600
C       -1.42032000       7.37996000      13.67643000       0.00399700      -0.00632300       0.01460100
C        7.10139000       0.00000000      13.67656000       0.00826200      -0.00939900       0.02099000
C        4.97101000       3.68992000      13.67655000      -0.00934000       0.02755700       0.01032700
C        2.84057000       7.37996000      13.67714000      -0.00975200       0.00480800       0.01970100
C       11.36215000       0.00000000      13.67628000      -0.13041100      -0.02982900      -0.00578300
C        9.23177000       3.68992000      13.67726000      -0.01554300      -0.01877400       0.01550600
C        7.10133000       7.37996000      13.67685000       0.02506200       0.00758500       0.02091500
C        0.00000000       0.00000000      10.31510000      -0.21613400      -0.37427600      -0.33701600
C       -2.13038000       3.68992000      10.32341000       0.03023300       0.00515700      -0.02644400
C        8.52158000       7.37996000      10.32356000       0.01123400       0.00166300      -0.04291200
C        4.26076000       0.00000000      10.32341000      -0.01062000       0.02863500      -0.02641100
C        2.13038000       3.68992000      10.32516000       0.11234800       0.19436700      -0.05849600
C       -0.00006000       7.37996000      10.32508000       0.01058800       0.00921500      -0.02121400
C        8.52164000       0.00000000      10.32356000      -0.00227300       0.01157300      -0.04325100
C        6.39126000       3.68992000      10.32508000       0.00476500       0.01478900      -0.02119000
C        4.26082000       7.37996000      10.32381000       0.00510300       0.00648300      -0.03304000
C       -0.00000000       2.45995000      10.31491000      -0.21448100       0.37803800      -0.32817900
C       -2.13044000       6.14998000      10.32417000       0.01396400      -0.00654200      -0.03178000
C       -4.26082000       9.83991000      10.32593000       0.11028500      -0.20207400      -0.04224800
C        4.26076000       2.45995000      10.32341000      -0.01685900      -0.04090700      -0.02141700
C        2.13031000       6.14998000      10.32402000       0.01021100      -0.00134600      -0.03405400
C       -0.00006000       9.83991000      10.32407000       0.01000900      -0.02742800      -0.03439500
C        8.52164000       2.45995000      10.32365000       0.00669000      -0.01993000      -0.03040500
C        6.39120000       6.14998000      10.32371000       0.00969300      -0.00200100      -0.03033900
C        4.26082000       9.83991000      10.32408000       0.03042700      -0.00535700      -0.01798100
C        2.13038000       1.22997000      10.31491000       0.43445700       0.00342500      -0.32818500
C        0.00000000       4.91990000      10.32341000      -0.02558300      -0.03791300      -0.02142000
C       -2.13044000       8.60993000      10.32365000      -0.02071300      -0.00395100      -0.03040600
C        6.39126000       1.22997000      10.32417000      -0.01073800       0.00827500      -0.03179900
C        4.26089000       4.91990000      10.32402000      -0.00278800       0.00460200      -0.03408300
C        2.13044000       8.60993000      10.32371000      -0.00461500       0.00691900      -0.03067800
C       10.65202000       1.22997000      10.32593000      -0.23019400      -0.00543400      -0.04221400
C        8.52164000       4.91990000      10.32407000      -0.02723000      -0.00796800      -0.03404900
C        6.39120000       8.60993000      10.32408000      -0.01984700       0.02383700      -0.01795800
C       -0.71013000       1.22997000      10.31525000      -0.40794900      -0.01213600      -0.32471000
C       -2.84050000       4.91990000      10.32341000       0.01952800      -0.00099200      -0.02368100
C       -4.97095000       8.60993000      10.32319000       0.02166300       0.04064500      -0.01264600
C        3.55063000       1.22997000      10.32487000       0.20023000      -0.01032400      -0.04883100
C        1.42025000       4.91990000      10.32258000       0.02324400      -0.03137300      -0.01464200
C       -0.71019000       8.60993000      10.32356000       0.02168500       0.00893300      -0.01787100
C        7.81152000       1.22997000      10.32298000       0.01187000       0.00212300      -0.02054000
C        5.68114000       4.91990000      10.32356000       0.00463400      -0.00369700      -0.01794000
C        3.55070000       8.60993000      10.32323000       0.02910400      -0.00342100      -0.02781800
C        1.42025000       0.00000000      10.31525000       0.19352600      -0.35948000      -0.32471000
C       -0.71013000       3.68992000      10.32487000      -0.10916600       0.16767900      -0.04883200
C       -2.84057000       7.37996000      10.32298000      -0.00371200       0.01141900      -0.02056700
C        5.68101000       0.00000000      10.32341000      -0.01057200       0.01579800      -0.02365400
C        3.55063000       3.68992000      10.32258000      -0.03889400       0.00338600      -0.01464100
C        1.42019000       7.37996000      10.32356000      -0.00512000       0.00172800      -0.01791200
C        9.94190000       0.00000000      10.32319000       0.02472800       0.03933400      -0.01262000
C        7.81152000       3.68992000      10.32356000      -0.00290900       0.02306000      -0.01789600
C        5.68107000       7.37996000      10.32323000      -0.01681800       0.02394200      -0.02784500
C        1.42025000       2.45995000      10.31474000       0.20550800       0.35570600      -0.32771200
C       -0.71013000       6.14987000      10.32354000      -0.02188100      -0.00174600      -0.01725700
C       -2.84057000       9.83991000      10.32299000      -0.05010500       0.00699700      -0.02009800
C        5.68114000       2.45995000      10.32354000       0.00181500      -0.02003400      -0.01725900
C        3.55076000       6.14987000      10.32356000      -0.00452900       0.00537400      -0.02183600
C        1.42032000       9.83991000      10.32285000      -0.00475100      -0.01440900      -0.02304000
C        9.94190000       2.45995000      10.32299000       0.03131600      -0.04003500      -0.02009900
C        7.81152000       6.14987000      10.32291000      -0.01371100      -0.00462300      -0.02372800
C        5.68107000       9.83991000      10.32557000      -0.09712400      -0.16847900      -0.03271000
Li       0.71021000       1.23012000      11.83770000      -0.00289200      -0.00500400       0.82134000
109
Lattice="12.782400131 0.0 0.0 -6.391200066 11.069883235 0.0 0.0 0.0 24.0" Properties=species:S:1:pos:R:3:forces:R:3 stress="-0.004130867916856324 2.596467796367435e-06 2.8086791066474663e-07 2.596467796367435e-06 -0.0041325531243203125 3.557660201753457e-07 2.8086791066474663e-07 3.557660201753457e-07 0.0016603163255944574" free_energy=-1004.75841281 energy=-1004.75278138 pbc="T T T"
C        0.00000000       0.00000000      13.68086000      -0.10853000      -0.18802900       0.74835200
C       -2.13038000       3.68992000      13.67597000       0.01104300       0.01321400      -0.02237700
C        8.52158000       7.37996000      13.67590000      -0.01417500      -0.00520300       0.03005500
C        4.26076000       0.00000000      13.67597000       0.00399400       0.01516500      -0.02214800
C        2.13038000       3.68992000      13.67640000       0.03448700       0.06212300       0.08619600
C       -0.00006000       7.37996000      13.67495000      -0.00248000       0.00573100       0.01709600
C        8.52164000       0.00000000      13.67590000       0.00252200      -0.01474600       0.03003100
C        6.39126000       3.68992000      13.67495000       0.00601100       0.00303800       0.01711100
C        4.26082000       7.37996000      13.67585000       0.00464900       0.00831100       0.04593900
C       -0.00000000       2.45995000      13.68100000      -0.11028700       0.19744000       0.74546000
C       -2.13044000       6.14998000      13.67553000       0.01208400       0.00086600       0.03646600
C       -4.26082000       9.83991000      13.67594000       0.03394000      -0.05643300       0.07601200
C        4.26076000       2.45995000      13.67590000       0.00777000      -0.01487000      -0.02620500
C        2.13031000       6.14998000      13.67566000      -0.01837700       0.01522100       0.02688900
C       -0.00006000       9.83991000      13.67565000       0.00676800      -0.00918100       0.03271500
C        8.52164000       2.45995000      13.67591000       0.00372700       0.01291700       0.03208200
C        6.39120000       6.14998000      13.67589000      -0.00164700      -0.00065400       0.03793800
C        4.26082000       9.83991000      13.67544000       0.01255700      -0.01536000      -0.03841500
C        2.13038000       1.22997000      13.68100000       0.22624200       0.00330800       0.74547100
C        0.00000000       4.91990000      13.67590000      -0.01818700       0.00077000      -0.02643200
C       -2.13044000       8.60993000      13.67591000       0.00954400       0.00972000       0.03208500
C        6.39126000       1.22997000      13.67553000      -0.00860500       0.01077200       0.03670500
C        4.26089000       4.91990000      13.67566000       0.01751300      -0.00705700       0.02687100
C        2.13044000       8.60993000      13.67589000      -0.00295500      -0.00194300       0.03793600
C       10.65202000       1.22997000      13.67594000      -0.06575900       0.00119800       0.07603200
C        8.52164000       4.91990000      13.67565000      -0.01278600       0.00267000       0.03270300
C        6.39120000       8.60993000      13.67544000      -0.01939200       0.00314700      -0.03841800
C       11.36215000       2.45995000      13.67622000      -0.14725000       0.01571800       0.01260700
C       -3.55070000       6.14998000      13.67607000      -0.01280900       0.00182000       0.02317600
C       -5.68107000       9.83991000      13.67588000       0.04614400      -0.13078800       0.00428100
C        2.84050000       2.45995000      13.67636000       0.08343100       0.11785300       0.02114700
C        0.71006000       6.14998000      13.67606000       0.02780600       0.00501200       0.01824800
C       -1.42032000       9.83991000      13.67655000      -0.00957900      -0.02305200       0.02163700
C        7.10139000       2.45995000      13.67598000      -0.00719600       0.00153500       0.02048300
C        4.97095000       6.14998000      13.67647000       0.00848600      -0.00650400       0.02386400
C        2.84057000       9.83991000      13.67627000      -0.00880100       0.02488700       0.02722100
C        0.71013000       1.22997000      13.80081000      -0.00122900      -0.00190000      -0.26216100
C       -1.42032000       4.92001000      13.67658000       0.00028300       0.00030800       0.03730700
C       -3.55070000       8.60993000      13.67603000      -0.01446400       0.00028300       0.03417600
C        4.97088000       1.22997000      13.67662000       0.00774400       0.00060700       0.03683700
C        2.84044000       4.92001000      13.67591000      -0.00093400      -0.01486600       0.02787500
C        0.71006000       8.60993000      13.67596000      -0.00410900       0.00377900       0.02202900
C        9.23177000       1.22997000      13.67603000       0.00727800      -0.01229200       0.03417500
C        7.10133000       4.92001000      13.67596000       0.00897300      -0.00839000       0.02202700
C        4.97095000       8.60993000      13.67620000       0.00049800       0.00107200       0.03543700
C        2.84050000       0.00000000      13.67622000       0.08689800      -0.11994000       0.01258800
C        0.71013000       3.68992000      13.67636000       0.05967600       0.13071300       0.02116500
C       -1.42032000       7.37996000      13.67598000       0.00475500      -0.00529400       0.02050000
C        7.10139000       0.00000000      13.67607000       0.00795500      -0.00957800       0.02315600
C        4.97101000       3.68992000      13.67606000      -0.00993000       0.02700800       0.01822800
C        2.84057000       7.37996000      13.67647000      -0.00975000       0.00514600       0.02386300
C       11.36215000       0.00000000      13.67588000      -0.13636500      -0.02533700       0.00428500
C        9.23177000       3.68992000      13.67655000      -0.01553300      -0.01991400       0.02165600
C        7.10133000       7.37996000      13.67627000       0.02609400       0.00536900       0.02722200
C        0.00000000       0.00000000      10.31821000      -0.19138500      -0.33141500      -0.28993200
C       -2.13038000       3.68992000      10.32391000       0.02943700       0.00502100      -0.02839800