109
Lattice="12.782400131 0.0 0.0 -6.391200066 11.069883235 0.0 0.0 0.0 24.0" Properties=species:S:1:pos:R:3:forces:R:3 stress="-0.004155590534503948 4.350331860740631e-06 -0.0 4.350331860740631e-06 -0.004154498270406919 -0.0 -0.0 -0.0 0.004628341160225723" free_energy=-1005.21220464 energy=-1005.20878557 pbc="T T T"
C        0.00000000       0.00000000      13.87500000      -0.09379600      -0.16244200      -0.04170300
C       -2.13038000       3.68992000      13.87500000       0.00781500      -0.02497700       0.01402400
C        8.52158000       7.37996000      13.87500000      -0.00839900      -0.00570700       0.00441800
C        4.26076000       0.00000000      13.87500000      -0.02751200      -0.00670300       0.01402200
C        2.13038000       3.68992000      13.87500000       0.09854000       0.17304900       0.06306700
C       -0.00006000       7.37996000      13.87500000      -0.01107100      -0.00055700      -0.02379500
C        8.52164000       0.00000000      13.87500000      -0.00085900      -0.00996800       0.00441800
C        6.39126000       3.68992000      13.87500000       0.00481500      -0.00751400      -0.02379500
C        4.26082000       7.37996000      13.87500000      -0.00056800      -0.00066400       0.00540600
C       -0.00000000       2.45995000      13.87500000      -0.20034000      -0.00276100       0.04890300
C       -2.13044000       6.14998000      13.87500000       0.01731500       0.01362900      -0.00268900
C       -4.26082000       9.83991000      13.87500000       0.01670700       0.02037700      -0.00192900
C        4.26076000       2.45995000      13.87500000       0.18711500      -0.00037100      -0.02384700
C        2.13031000       6.14998000      13.87500000       0.01279000      -0.00748600       0.00453400
C       -0.00006000       9.83991000      13.87500000       0.01197500      -0.00655000      -0.00294500
C        8.52164000       2.45995000      13.87500000       0.01105200      -0.00189500       0.00340500
C        6.39120000       6.14998000      13.87500000       0.01233100       0.00289900       0.00454300
C        4.26082000       9.83991000      13.87500000       0.01187300      -0.00910600      -0.00915500
C        2.13038000       1.22997000      13.87500000       0.09780900      -0.17474600       0.04889200
C        0.00000000       4.91990000      13.87500000      -0.09535100       0.16337200      -0.02384400
C       -2.13044000       8.60993000      13.87500000      -0.00700000       0.00868600       0.00340700
C        6.39126000       1.22997000      13.87500000      -0.00022100       0.02171600      -0.00268700
C        4.26089000       4.91990000      13.87500000      -0.01774800       0.00859700       0.00453800
C        2.13044000       8.60993000      13.87500000      -0.00691200       0.01197300       0.00454500
C       10.65202000       1.22997000      13.87500000       0.00931200       0.02471300      -0.00192800
C        8.52164000       4.91990000      13.87500000      -0.01315200       0.00851800      -0.00294300
C        6.39120000       8.60993000      13.87500000      -0.01368200       0.00571300      -0.00915400
C       11.36215000       2.45995000      13.87500000      -0.18682300      -0.00443400      -0.03557200
C       -3.55070000       6.14998000      13.87500000      -0.01573100       0.00139600      -0.00670100
C       -5.68107000       9.83991000      13.87500000      -0.02418600       0.02407500      -0.01004700
C        2.84050000       2.45995000      13.87500000       0.18499800      -0.00050100       0.05544900
C        0.71006000       6.14998000      13.87500000      -0.01054100      -0.01496700      -0.00177300
C       -1.42032000       9.83991000      13.87500000      -0.00625100      -0.01059600       0.00573000
C        7.10139000       2.45995000      13.87500000      -0.01449000      -0.00581600      -0.01039900
C        4.97095000       6.14998000      13.87500000      -0.00773200       0.00450700       0.00573100
C        2.84057000       9.83991000      13.87500000      -0.00511300       0.01201200      -0.00300300
C        0.71013000       1.22997000      13.87500000      -0.10519200      -0.18201500       0.04066900
C       -1.42032000       4.92001000      13.87500000       0.02572600       0.00461500       0.01178100
C       -3.55070000       8.60993000      13.87500000      -0.00219600       0.00068000      -0.00274800
C        4.97088000       1.22997000      13.87500000      -0.00030500       0.02283200       0.01296200
C        2.84044000       4.92001000      13.87500000       0.09529500       0.15187700      -0.03509400
C        0.71006000       8.60993000      13.87500000       0.00342500       0.01258200      -0.00925800
C        9.23177000       1.22997000      13.87500000       0.00149400      -0.00146400      -0.00274700
C        7.10133000       4.92001000      13.87500000       0.01281600       0.00253300      -0.00926000
C        4.97095000       8.60993000      13.87500000       0.00505600       0.00896700      -0.00828800
C        2.84050000       0.00000000      13.87500000       0.08922500      -0.16427900      -0.03557600
C        0.71013000       3.68992000      13.87500000      -0.09363000       0.15949300       0.05547500
C       -1.42032000       7.37996000      13.87500000       0.00203800      -0.01528300      -0.01040100
C        7.10139000       0.00000000      13.87500000       0.00905700      -0.01231000      -0.00670000
C        4.97101000       3.68992000      13.87500000      -0.00807000      -0.01617200      -0.00176900
C        2.84057000       7.37996000      13.87500000       0.00790200      -0.00337500       0.00573100
C       11.36215000       0.00000000      13.87500000       0.03292600      -0.00881500      -0.01004700
C        9.23177000       3.68992000      13.87500000      -0.00641900      -0.01080300       0.00573100
C        7.10133000       7.37996000      13.87500000       0.01310400       0.00213300      -0.00300400
C        0.00000000       0.00000000      10.12500000      -0.09379600      -0.16244200       0.04170300
C       -2.13038000       3.68992000      10.12500000       0.00781500      -0.02497700      -0.01402400
C        8.52158000       7.37996000      10.12500000      -0.00839900      -0.00570700      -0.00441800
C        4.26076000       0.00000000      10.12500000      -0.02751200      -0.00670300      -0.01402200
C        2.13038000       3.68992000      10.12500000       0.09854000       0.17304900      -0.06306700
C       -0.00006000       7.37996000      10.12500000      -0.01107100      -0.00055700       0.02379500
C        8.52164000       0.00000000      10.12500000      -0.00085900      -0.00996800      -0.00441800
C        6.39126000       3.68992000      10.12500000       0.00481500      -0.00751400       0.02379500
C        4.26082000       7.37996000      10.12500000      -0.00056800      -0.00066400      -0.00540600
C       -0.00000000       2.45995000      10.12500000      -0.20034000      -0.00276100      -0.04890300
C       -2.13044000       6.14998000      10.12500000       0.01731500       0.01362900       0.00268900
C       -4.26082000       9.83991000      10.12500000       0.01670700       0.02037700       0.00192900
C        4.26076000       2.45995000      10.12500000       0.18711500      -0.00037100       0.02384700
C        2.13031000       6.14998000      10.12500000       0.01279000      -0.00748600      -0.00453400
C       -0.00006000       9.83991000      10.12500000       0.01197500      -0.00655000       0.00294500
C        8.52164000       2.45995000      10.12500000       0.01105200      -0.00189500      -0.00340500
C        6.39120000       6.14998000      10.12500000       0.01233100       0.00289900      -0.00454300
C        4.26082000       9.83991000      10.12500000       0.01187300      -0.00910600       0.00915500
C        2.13038000       1.22997000      10.12500000       0.09780900      -0.17474600      -0.04889200
C        0.00000000       4.91990000      10.12500000      -0.09535100       0.16337200       0.02384400
C       -2.13044000       8.60993000      10.12500000      -0.00700000       0.00868600      -0.00340700
C        6.39126000       1.22997000      10.12500000      -0.00022100       0.02171600       0.00268700
C        4.26089000       4.91990000      10.12500000      -0.01774800       0.00859700      -0.00453800
C        2.13044000       8.60993000      10.12500000      -0.00691200       0.01197300      -0.00454500
C       10.65202000       1.22997000      10.12500000       0.00931200       0.02471300       0.00192800
C        8.52164000       4.91990000      10.12500000      -0.01315200       0.00851800       0.00294300
C        6.39120000       8.60993000      10.12500000      -0.01368200       0.00571300       0.00915400
C       11.36215000       2.45995000      10.12500000      -0.18682300      -0.00443400       0.03557200
C       -3.55070000       6.14998000      10.12500000      -0.01573100       0.00139600       0.00670100
C       -5.68107000       9.83991000      10.12500000      -0.02418600       0.02407500       0.01004700
C        2.84050000       2.45995000      10.12500000       0.18499800      -0.00050100      -0.05544900
C        0.71006000       6.14998000      10.12500000      -0.01054100      -0.01496700       0.00177300
C       -1.42032000       9.83991000      10.12500000      -0.00625100      -0.01059600      -0.00573000
C        7.10139000       2.45995000      10.12500000      -0.01449000      -0.00581600       0.01039900
C        4.97095000       6.14998000      10.12500000      -0.00773200       0.00450700      -0.00573100
C        2.84057000       9.83991000      10.12500000      -0.00511300       0.01201200       0.00300300
C        0.71013000       1.22997000      10.12500000      -0.10519200      -0.18201500      -0.04066900
C       -1.42032000       4.92001000      10.12500000       0.02572600       0.00461500      -0.01178100
C       -3.55070000       8.60993000      10.12500000      -0.00219600       0.00068000       0.00274800
C        4.97088000       1.22997000      10.12500000      -0.00030500       0.02283200      -0.01296200
C        2.84044000       4.92001000      10.12500000       0.09529500       0.15187700       0.03509400
C        0.71006000       8.60993000      10.12500000       0.00342500       0.01258200       0.00925800
C        9.23177000       1.22997000      10.12500000       0.00149400      -0.00146400       0.00274700
C        7.10133000       4.92001000      10.12500000       0.01281600       0.00253300       0.00926000
C        4.97095000       8.60993000      10.12500000       0.00505600       0.00896700       0.00828800
C        2.84050000       0.00000000      10.12500000       0.08922500      -0.16427900       0.03557600
C        0.71013000       3.68992000      10.12500000      -0.09363000       0.15949300      -0.05547500
C       -1.42032000       7.37996000      10.12500000       0.00203800      -0.01528300       0.01040100
C        7.10139000       0.00000000      10.12500000       0.00905700      -0.01231000       0.00670000
C        4.97101000       3.68992000      10.12500000      -0.00807000      -0.01617200       0.00176900
C        2.84057000       7.37996000      10.12500000       0.00790200      -0.00337500      -0.00573100
C       11.36215000       0.00000000      10.12500000       0.03292600      -0.00881500       0.01004700
C        9.23177000       3.68992000      10.12500000      -0.00641900      -0.01080300      -0.00573100
C        7.10133000       7.37996000      10.12500000       0.01310400       0.00213300       0.00300400
Li       1.42025000       2.46002000      12.00000000       0.00154700       0.00267400       0.00000000
109
Lattice="12.782400131 0.0 0.0 -6.391200066 11.069883235 0.0 0.0 0.0 24.0" Properties=species:S:1:pos:R:3:forces:R:3 stress="-0.0041557777797777236 9.412195761831954e-06 -0.0 9.412195761831954e-06 -0.004149211712177295 -0.0 -0.0 -0.0 0.004640056472855006" free_energy=-1005.21419799 energy=-1005.210779 pbc="T T T"
C        0.00000000       0.00000000      13.87299000      -0.09384200      -0.16248900      -0.01640300
C       -2.13038000       3.68992000      13.87568000       0.00777000      -0.02475300       0.00075000
C        8.52158000       7.37996000      13.87521000      -0.00841900      -0.00567200      -0.00202700
C        4.26076000       0.00000000      13.87568000      -0.02732400      -0.00661400       0.00108700
C        2.13038000       3.68992000      13.87804000       0.09765000       0.17154100       0.03660200
C       -0.00006000       7.37996000      13.87385000      -0.01107200      -0.00047500      -0.01431000
C        8.52164000       0.00000000      13.87521000      -0.00084800      -0.00995100      -0.00205800
C        6.39126000       3.68992000      13.87385000       0.00485800      -0.00745700      -0.01428600
C        4.26082000       7.37996000      13.87526000      -0.00056300      -0.00062200       0.00325600
C       -0.00000000       2.45995000      13.87736000      -0.19871100       0.00408100       0.03039700
C       -2.13044000       6.14998000      13.87487000       0.01724800       0.01366600      -0.00163400
C       -4.26082000       9.83991000      13.87491000       0.01651500       0.02022200      -0.01523100
C        4.26076000       2.45995000      13.87385000       0.18808100       0.00024500       0.00565500
C        2.13031000       6.14998000      13.87522000       0.01255300      -0.00728400      -0.00792000
C       -0.00006000       9.83991000      13.87486000       0.01194000      -0.00652100      -0.00324800
C        8.52164000       2.45995000      13.87516000       0.01098200      -0.00188500      -0.00150400
C        6.39120000       6.14998000      13.87522000       0.01230500       0.00283700       0.00094500
C        4.26082000       9.83991000      13.87456000       0.01182300      -0.00910100      -0.00842500
C        2.13038000       1.22997000      13.87736000       0.10289200      -0.16989800       0.03040600
C        0.00000000       4.91990000      13.87385000      -0.09532800       0.16453300       0.00532300
C       -2.13044000       8.60993000      13.87516000      -0.00698500       0.00864700      -0.00150400
C        6.39126000       1.22997000      13.87487000      -0.00018500       0.02169200      -0.00128700
C        4.26089000       4.91990000      13.87522000      -0.01748400       0.00850900      -0.00795500
C        2.13044000       8.60993000      13.87522000      -0.00698200       0.01193600       0.00094500
C       10.65202000       1.22997000      13.87491000       0.00924500       0.02448500      -0.01519900
C        8.52164000       4.91990000      13.87486000      -0.01313900       0.00851900      -0.00327000
C        6.39120000       8.60993000      13.87456000      -0.01368100       0.00568900      -0.00842500
C       11.36215000       2.45995000      13.87328000      -0.18679200      -0.00445900      -0.00248300
C       -3.55070000       6.14998000      13.87468000      -0.01571300       0.00136800      -0.00082900
C       -5.68107000       9.83991000      13.87452000      -0.02408200       0.02396500      -0.01987600
C        2.84050000       2.45995000      13.87767000       0.18398100      -0.00179600       0.04519400
C        0.71006000       6.14998000      13.87491000      -0.01037400      -0.01473000      -0.01422900
C       -1.42032000       9.83991000      13.87528000      -0.00714700      -0.01260400       0.00556200
C        7.10139000       2.45995000      13.87450000      -0.01485200      -0.00538100      -0.00982100
C        4.97095000       6.14998000      13.87528000      -0.00549500       0.00433000       0.00556700
C        2.84057000       9.83991000      13.87486000      -0.00826400       0.00784500       0.00244000
C        0.71013000       1.22997000      13.87696000      -0.10707500      -0.18524100       0.03133900
C       -1.42032000       4.92001000      13.87557000       0.02550400       0.00457700      -0.00050900
C       -3.55070000       8.60993000      13.87487000       0.00299200      -0.00000400       0.00441300
C        4.97088000       1.22997000      13.87563000      -0.00120400       0.02462100      -0.00120900
C        2.84044000       4.92001000      13.87331000       0.09785200       0.15110700       0.00238400
C        0.71006000       8.60993000      13.87455000       0.00340100       0.01251100      -0.00939900
C        9.23177000       1.22997000      13.87487000      -0.00172200       0.00270300       0.00441200
C        7.10133000       4.92001000      13.87455000       0.01257100       0.00198700      -0.00737500
C        4.97095000       8.60993000      13.87460000       0.00503800       0.00896800      -0.00753600
C        2.84050000       0.00000000      13.87328000       0.08915800      -0.16424800      -0.00251100
C        0.71013000       3.68992000      13.87768000      -0.09427100       0.15798100       0.04523500
C       -1.42032000       7.37996000      13.87450000       0.00256500      -0.01536300      -0.00979600
C        7.10139000       0.00000000      13.87468000       0.00899500      -0.01229300      -0.00085500
C        4.97101000       3.68992000      13.87491000      -0.00797700      -0.01589200      -0.01425700
C        2.84057000       7.37996000      13.87528000       0.00660100      -0.00151000       0.00556600
C       11.36215000       0.00000000      13.87452000       0.03275000      -0.00876400      -0.01987500
C        9.23177000       3.68992000      13.87528000      -0.00774000      -0.01256700       0.00559000
C        7.10133000       7.37996000      13.87486000       0.01104200      -0.00266100       0.00244000
C        0.00000000       0.00000000      10.12701000      -0.09384200      -0.16248900       0.01640300
C       -2.13038000       3.68992000      10.12432000       0.00777000      -0.02475300      -0.00075000
C        8.52158000       7.37996000      10.12479000      -0.00841900      -0.00567200       0.00202700
C        4.26076000       0.00000000      10.12432000      -0.02732400      -0.00661400      -0.00108700
C        2.13038000       3.68992000      10.12196000       0.09765000       0.17154100      -0.03660200
C       -0.00006000       7.37996000      10.12615000      -0.01107200      -0.00047500       0.01431000
C        8.52164000       0.00000000      10.12479000      -0.00084800      -0.00995100       0.00205800
C        6.39126000       3.68992000      10.12615000       0.00485800      -0.00745700       0.01428600
C        4.26082000       7.37996000      10.12474000      -0.00056300      -0.00062200      -0.00325600
C       -0.00000000       2.45995000      10.12264000      -0.19871100       0.00408100      -0.03039700
C       -2.13044000       6.14998000      10.12513000       0.01724800       0.01366600       0.00163400
C       -4.26082000       9.83991000      10.12509000       0.01651500       0.02022200       0.01523100
C        4.26076000       2.45995000      10.12615000       0.18808100       0.00024500      -0.00565500
C        2.13031000       6.14998000      10.12478000       0.01255300      -0.00728400       0.00792000
C       -0.00006000       9.83991000      10.12514000       0.01194000      -0.00652100       0.00324800
C        8.52164000       2.45995000      10.12484000       0.01098200      -0.00188500       0.00150400
C        6.39120000       6.14998000      10.12478000       0.01230500       0.00283700      -0.00094500
C        4.26082000       9.83991000      10.12544000       0.01182300      -0.00910100       0.00842500
C        2.13038000       1.22997000      10.12264000       0.10289200      -0.16989800      -0.03040600
C        0.00000000       4.91990000      10.12615000      -0.09532800       0.16453300      -0.00532300
C       -2.13044000       8.60993000      10.12484000      -0.00698500       0.00864700       0.00150400
C        6.39126000       1.22997000      10.12513000      -0.00018500       0.02169200       0.00128700
C        4.26089000       4.91990000      10.12478000      -0.01748400       0.00850900       0.00795500
C        2.13044000       8.60993000      10.12478000      -0.00698200       0.01193600      -0.00094500
C       10.65202000       1.22997000      10.12509000       0.00924500       0.02448500       0.01519900
C        8.52164000       4.91990000      10.12514000      -0.01313900       0.00851900       0.00327000
C        6.39120000       8.60993000      10.12544000      -0.01368100       0.00568900       0.00842500
C       11.36215000       2.45995000      10.12672000      -0.18679200      -0.00445900       0.00248300
C       -3.55070000       6.14998000      10.12532000      -0.01571300       0.00136800       0.00082900
C       -5.68107000       9.83991000      10.12548000      -0.02408200       0.02396500       0.01987600
C        2.84050000       2.45995000      10.12233000       0.18398100      -0.00179600      -0.04519400
C        0.71006000       6.14998000      10.12509000      -0.01037400      -0.01473000       0.01422900
C       -1.42032000       9.83991000      10.12472000      -0.00714700      -0.01260400      -0.00556200
C        7.10139000       2.45995000      10.12550000      -0.01485200      -0.00538100       0.00982100
C        4.97095000       6.14998000      10.12472000      -0.00549500       0.00433000      -0.00556700
C        2.84057000       9.83991000      10.12514000      -0.00826400       0.00784500      -0.00244000
C        0.71013000       1.22997000      10.12304000      -0.10707500      -0.18524100      -0.03133900
C       -1.42032000       4.92001000      10.12443000       0.02550400       0.00457700       0.00050900
C       -3.55070000       8.60993000      10.12513000       0.00299200      -0.00000400      -0.00441300
C        4.97088000       1.22997000      10.12437000      -0.00120400       0.02462100       0.00120900
C        2.84044000       4.92001000      10.12669000       0.09785200       0.15110700      -0.00238400
C        0.71006000       8.60993000      10.12545000       0.00340100       0.01251100       0.00939900
C        9.23177000       1.22997000      10.12513000      -0.00172200       0.00270300      -0.00441200
C        7.10133000       4.92001000      10.12545000       0.01257100       0.00198700       0.00737500
C        4.97095000       8.60993000      10.12540000       0.00503800       0.00896800       0.00753600
C        2.84050000       0.00000000      10.12672000       0.08915800      -0.16424800       0.00251100
C        0.71013000       3.68992000      10.12232000      -0.09427100       0.15798100      -0.04523500
C       -1.42032000       7.37996000      10.12550000       0.00256500      -0.01536300       0.00979600
C        7.10139000       0.00000000      10.12532000       0.00899500      -0.01229300       0.00085500
C        4.97101000       3.68992000      10.12509000      -0.00797700      -0.01589200       0.01425700
C        2.84057000       7.37996000      10.12472000       0.00660100      -0.00151000      -0.00556600
C       11.36215000       0.00000000      10.12548000       0.03275000      -0.00876400       0.01987500
C        9.23177000       3.68992000      10.12472000      -0.00774000      -0.01256700      -0.00559000
C        7.10133000       7.37996000      10.12514000       0.01104200      -0.00266100      -0.00244000
Li       1.42033000       2.46015000      12.00000000       0.00191500       0.00334600       0.00000000
109
Lattice="12.782400131 0.0 0.0 -6.391200066 11.069883235 0.0 0.0 0.0 24.0" Properties=species:S:1:pos:R:3:forces:R:3 stress="-0.004164484685008331 8.94408257739071e-06 -0.0 8.94408257739071e-06 -0.004156458104272445 -0.0 -0.0 -0.0 0.004649562291253726" free_energy=-1005.21488655 energy=-1005.21146761 pbc="T T T"
C        0.00000000       0.00000000      13.87144000      -0.09389300      -0.16249600       0.00290200
C       -2.13038000       3.68992000      13.87620000       0.00768300      -0.02472500      -0.00949700
C        8.52158000       7.37996000      13.87538000      -0.00850600      -0.00572500      -0.00697000
C        4.26076000       0.00000000      13.87620000      -0.02732700      -0.00663500      -0.00890000
C        2.13038000       3.68992000      13.88039000       0.09726500       0.17095700       0.02148600
C       -0.00006000       7.37996000      13.87297000      -0.01113300      -0.00048300       0.00202200
C        8.52164000       0.00000000      13.87538000      -0.00092000      -0.01001200      -0.00702500
C        6.39126000       3.68992000      13.87297000       0.00481200      -0.00747300       0.00206500
C        4.26082000       7.37996000      13.87546000      -0.00063300      -0.00066300       0.00163200
C       -0.00000000       2.45995000      13.87918000      -0.19870400       0.00398400       0.02199600
C       -2.13044000       6.14998000      13.87477000       0.01711100       0.01361600      -0.00083800
C       -4.26082000       9.83991000      13.87484000       0.01631900       0.02005900      -0.02553000
C        4.26076000       2.45995000      13.87296000       0.18776800       0.00013000       0.02678500
C        2.13031000       6.14998000      13.87539000       0.01233700      -0.00723800      -0.01754400
C       -0.00006000       9.83991000      13.87475000       0.01184000      -0.00657800      -0.00348900
C        8.52164000       2.45995000      13.87529000       0.01085300      -0.00195200      -0.00526800
C        6.39120000       6.14998000      13.87539000       0.01221500       0.00271800      -0.00179800
C        4.26082000       9.83991000      13.87422000       0.01170200      -0.00917000      -0.00792200
C        2.13038000       1.22997000      13.87918000       0.10273500      -0.16990100       0.02202000
C        0.00000000       4.91990000      13.87296000      -0.09533900       0.16424500       0.02619600
C       -2.13044000       8.60993000      13.87529000      -0.00704900       0.00854300      -0.00526900
C        6.39126000       1.22997000      13.87477000      -0.00023000       0.02158900      -0.00022500
C        4.26089000       4.91990000      13.87539000      -0.01740700       0.00838500      -0.01760800
C        2.13044000       8.60993000      13.87539000      -0.00711000       0.01183900      -0.00179900
C       10.65202000       1.22997000      13.87484000       0.00913200       0.02427400      -0.02547300
C        8.52164000       4.91990000      13.87475000      -0.01320900       0.00844500      -0.00353000
C        6.39120000       8.60993000      13.87422000      -0.01375100       0.00559000      -0.00792300
C       11.36215000       2.45995000      13.87196000      -0.18672900      -0.00451200       0.02300100
C       -3.55070000       6.14998000      13.87443000      -0.01577700       0.00128000       0.00369000
C       -5.68107000       9.83991000      13.87414000      -0.02410700       0.02383000      -0.02754900
C        2.84050000       2.45995000      13.87974000       0.18989200      -0.00144000       0.03636200
C        0.71006000       6.14998000      13.87485000      -0.01035600      -0.01463900      -0.02388600
C       -1.42032000       9.83991000      13.87549000      -0.00717000      -0.01270000       0.00635900
C        7.10139000       2.45995000      13.87411000      -0.01493500      -0.00542500      -0.01099600
C        4.97095000       6.14998000      13.87549000      -0.00552000       0.00425200       0.00637000
C        2.84057000       9.83991000      13.87474000      -0.00830000       0.00779800       0.00539300
C        0.71013000       1.22997000      13.87847000      -0.10711900      -0.18523500       0.02552200
C       -1.42032000       4.92001000      13.87601000       0.02673000       0.00185500      -0.01264100
C       -3.55070000       8.60993000      13.87477000       0.00286700      -0.00010000       0.00868500
C        4.97088000       1.22997000      13.87611000      -0.00064700       0.02473300      -0.01691100
C        2.84044000       4.92001000      13.87200000       0.09750300       0.15179300       0.04106100
C        0.71006000       8.60993000      13.87421000       0.00294800       0.01198200      -0.00751900
C        9.23177000       1.22997000      13.87477000      -0.00181300       0.00258800       0.00868300
C        7.10133000       4.92001000      13.87421000       0.01243600       0.00188000      -0.00752000
C        4.97095000       8.60993000      13.87429000       0.00494600       0.00889000      -0.00699900
C        2.84050000       0.00000000      13.87196000       0.08901100      -0.16417900       0.02295300
C        0.71013000       3.68992000      13.87974000      -0.09698800       0.16332000       0.03641400
C       -1.42032000       7.37996000      13.87411000       0.00249700      -0.01541600      -0.01095100
C        7.10139000       0.00000000      13.87443000       0.00888000      -0.01235300       0.00364300
C        4.97101000       3.68992000      13.87485000      -0.00797700      -0.01578900      -0.02393900
C        2.84057000       7.37996000      13.87549000       0.00647600      -0.00153000       0.00636800
C       11.36215000       0.00000000      13.87414000       0.03257500      -0.00881200      -0.02754700
C        9.23177000       3.68992000      13.87549000      -0.00788100      -0.01259300       0.00640900
C        7.10133000       7.37996000      13.87474000       0.01094900      -0.00267600       0.00539300
C        0.00000000       0.00000000      10.12856000      -0.09389300      -0.16249600      -0.00290200
C       -2.13038000       3.68992000      10.12380000       0.00768300      -0.02472500       0.00949700
C        8.52158000       7.37996000      10.12462000      -0.00850600      -0.00572500       0.00697000
C        4.26076000       0.00000000      10.12380000      -0.02732700      -0.00663500       0.00890000