113
Lattice="13.017000198 0.0 0.0 -6.508500099 11.273052853 0.0 0.0 0.0 24.0" Properties=species:S:1:pos:R:3:forces:R:3 stress="-0.003961323562960831 9.880308946273199e-06 -0.0 9.880308946273199e-06 -0.003948515986234518 -0.0 -0.0 -0.0 0.0046104654780891935" free_energy=-1042.38123049 energy=-1042.37640873 pbc="T T T"
C        0.00000000       0.00000000      13.87500000      -0.05897100      -0.18440800      -0.05814200
C        9.76275000       5.63653000      13.87500000      -0.00275900       0.00672200      -0.02934200
C        6.50850000       0.00000000      13.87500000       0.00347800       0.00453100      -0.02976100
C        3.25425000       5.63653000      13.87500000      -0.02272500      -0.00502000      -0.02203400
C       -0.46484000       2.41559000      13.87500000      -0.18741400      -0.03409700       0.06290800
C       -3.71909000       8.05212000      13.87500000      -0.00823500      -0.00248700       0.00215200
C        6.04366000       2.41559000      13.87500000       0.00872100       0.02081500       0.00314600
C        2.78941000       8.05212000      13.87500000       0.00587300      -0.00216800       0.00225400
C       -0.92974000       4.83129000      13.87500000      -0.13906600       0.13377300      -0.02561600
C       -4.18399000      10.46782000      13.87500000      -0.00180800       0.01270800       0.01044200
C        5.57876000       4.83129000      13.87500000      -0.00167600      -0.01047200       0.00312700
C        2.32451000      10.46782000      13.87500000      -0.00668900      -0.01477000       0.00269300
C        1.85967000       1.61036000      13.87500000       0.12525900      -0.15100100       0.06631700
C       -1.39458000       7.24688000      13.87500000      -0.02008800      -0.00876500       0.00664200
C        8.36817000       1.61036000      13.87500000       0.00125300       0.00029500       0.00574500
C        5.11392000       7.24688000      13.87500000       0.00856600      -0.01179000       0.00564200
C        1.39464000       4.02606000      13.87500000       0.07022100       0.19099400       0.06281200
C       -1.85961000       9.66258000      13.87500000       0.00104500       0.00798400       0.00226200
C        7.90314000       4.02606000      13.87500000       0.00781600       0.02036000       0.00216100
C        4.64889000       9.66258000      13.87500000       0.01954100      -0.00596500       0.00315600
C        4.18412000       0.80523000      13.87500000      -0.02766800      -0.00413800       0.01371100
C        0.92987000       6.44176000      13.87500000       0.01263400      -0.01750200       0.01372500
C       10.69262000       0.80523000      13.87500000       0.00410700       0.02412400       0.01370800
C        7.43837000       6.44176000      13.87500000      -0.00364300       0.00082400       0.00628100
C        3.71915000       3.22082000      13.87500000       0.18124000       0.04115800      -0.02234600
C        0.46490000       8.85735000      13.87500000      -0.01359200       0.00077200       0.00597500
C       10.22765000       3.22082000      13.87500000       0.00775700      -0.01714600       0.01372000
C        6.97340000       8.85735000      13.87500000      -0.01238000      -0.00572500       0.00640600
C       -2.32445000       4.56288000      13.87500000       0.03491200       0.01844800       0.00913900
C       -5.57870000      10.19941000      13.87500000      -0.00542000       0.03186900       0.00914800
C        4.18405000       4.56288000      13.87500000       0.00317900      -0.00976600       0.00916900
C        0.92980000      10.19941000      13.87500000       0.01089700       0.01352000       0.00172200
C        0.46490000       1.34206000      13.87500000      -0.07156500      -0.18657800       0.06132400
C       -2.78935000       6.97858000      13.87500000      -0.00279900      -0.00348000       0.00099000
C        6.97340000       1.34206000      13.87500000      -0.00959200      -0.01588300       0.00088500
C        3.71915000       6.97858000      13.87500000      -0.02128200       0.01047200       0.00188000
C        0.00007000       3.75765000      13.87500000      -0.12919000       0.14656100       0.05989500
C       -3.25418000       9.39417000      13.87500000       0.01644900       0.00421900       0.00041100
C        6.50857000       3.75765000      13.87500000      -0.00487800      -0.00477100      -0.00048300
C        3.25432000       9.39417000      13.87500000      -0.01222200       0.00728500      -0.00058800
C        2.78941000       0.53682000      13.87500000       0.13137300      -0.14181700      -0.04251900
C       -0.46484000       6.17335000      13.87500000      -0.00580900      -0.02066500      -0.00643900
C        9.29791000       0.53682000      13.87500000      -0.00598400       0.00248600      -0.01374600
C        6.04366000       6.17335000      13.87500000      -0.00098200       0.00678400      -0.01417200
C        2.32458000       2.95241000      13.87500000       0.18234100       0.03515500       0.04493200
C       -0.92967000       8.58894000      13.87500000       0.00359800       0.00372400      -0.01541800
C        8.83308000       2.95241000      13.87500000      -0.01336400      -0.01957300      -0.01442200
C        5.57883000       8.58894000      13.87500000      -0.01052000       0.00341400      -0.01531300
C        1.85954000       5.36812000      13.87500000       0.07007900       0.16576400      -0.02692600
C       -1.39471000      11.00464000      13.87500000       0.01382600      -0.02535100       0.00185000
C        8.36804000       5.36812000      13.87500000       0.00760000      -0.02316600       0.00142200
C        5.11379000      11.00464000      13.87500000       0.03377000      -0.01364100       0.00917400
C        4.64896000       2.14718000      13.87500000      -0.00832500       0.02841900      -0.00714800
C        1.39471000       7.78370000      13.87500000       0.01181700       0.01698700      -0.01445600
C       11.15746000       2.14718000      13.87500000      -0.18181200      -0.02983300      -0.04323300
C        7.90321000       7.78370000      13.87500000       0.01303400       0.01049700      -0.01488600
C        0.00000000       0.00000000      10.12500000      -0.05897100      -0.18440800       0.05814200
C        9.76275000       5.63653000      10.12500000      -0.00275900       0.00672200       0.02934200
C        6.50850000       0.00000000      10.12500000       0.00347800       0.00453100       0.02976100
C        3.25425000       5.63653000      10.12500000      -0.02272500      -0.00502000       0.02203400
C       -0.46484000       2.41559000      10.12500000      -0.18741400      -0.03409700      -0.06290800
C       -3.71909000       8.05212000      10.12500000      -0.00823500      -0.00248700      -0.00215200
C        6.04366000       2.41559000      10.12500000       0.00872100       0.02081500      -0.00314600
C        2.78941000       8.05212000      10.12500000       0.00587300      -0.00216800      -0.00225400
C       -0.92974000       4.83129000      10.12500000      -0.13906600       0.13377300       0.02561600
C       -4.18399000      10.46782000      10.12500000      -0.00180800       0.01270800      -0.01044200
C        5.57876000       4.83129000      10.12500000      -0.00167600      -0.01047200      -0.00312700
C        2.32451000      10.46782000      10.12500000      -0.00668900      -0.01477000      -0.00269300
C        1.85967000       1.61036000      10.12500000       0.12525900      -0.15100100      -0.06631700
C       -1.39458000       7.24688000      10.12500000      -0.02008800      -0.00876500      -0.00664200
C        8.36817000       1.61036000      10.12500000       0.00125300       0.00029500      -0.00574500
C        5.11392000       7.24688000      10.12500000       0.00856600      -0.01179000      -0.00564200
C        1.39464000       4.02606000      10.12500000       0.07022100       0.19099400      -0.06281200
C       -1.85961000       9.66258000      10.12500000       0.00104500       0.00798400      -0.00226200
C        7.90314000       4.02606000      10.12500000       0.00781600       0.02036000      -0.00216100
C        4.64889000       9.66258000      10.12500000       0.01954100      -0.00596500      -0.00315600
C        4.18412000       0.80523000      10.12500000      -0.02766800      -0.00413800      -0.01371100
C        0.92987000       6.44176000      10.12500000       0.01263400      -0.01750200      -0.01372500
C       10.69262000       0.80523000      10.12500000       0.00410700       0.02412400      -0.01370800
C        7.43837000       6.44176000      10.12500000      -0.00364300       0.00082400      -0.00628100
C        3.71915000       3.22082000      10.12500000       0.18124000       0.04115800       0.02234600
C        0.46490000       8.85735000      10.12500000      -0.01359200       0.00077200      -0.00597500
C       10.22765000       3.22082000      10.12500000       0.00775700      -0.01714600      -0.01372000
C        6.97340000       8.85735000      10.12500000      -0.01238000      -0.00572500      -0.00640600
C       -2.32445000       4.56288000      10.12500000       0.03491200       0.01844800      -0.00913900
C       -5.57870000      10.19941000      10.12500000      -0.00542000       0.03186900      -0.00914800
C        4.18405000       4.56288000      10.12500000       0.00317900      -0.00976600      -0.00916900
C        0.92980000      10.19941000      10.12500000       0.01089700       0.01352000      -0.00172200
C        0.46490000       1.34206000      10.12500000      -0.07156500      -0.18657800      -0.06132400
C       -2.78935000       6.97858000      10.12500000      -0.00279900      -0.00348000      -0.00099000
C        6.97340000       1.34206000      10.12500000      -0.00959200      -0.01588300      -0.00088500
C        3.71915000       6.97858000      10.12500000      -0.02128200       0.01047200      -0.00188000
C        0.00007000       3.75765000      10.12500000      -0.12919000       0.14656100      -0.05989500
C       -3.25418000       9.39417000      10.12500000       0.01644900       0.00421900      -0.00041100
C        6.50857000       3.75765000      10.12500000      -0.00487800      -0.00477100       0.00048300
C        3.25432000       9.39417000      10.12500000      -0.01222200       0.00728500       0.00058800
C        2.78941000       0.53682000      10.12500000       0.13137300      -0.14181700       0.04251900
C       -0.46484000       6.17335000      10.12500000      -0.00580900      -0.02066500       0.00643900
C        9.29791000       0.53682000      10.12500000      -0.00598400       0.00248600       0.01374600
C        6.04366000       6.17335000      10.12500000      -0.00098200       0.00678400       0.01417200
C        2.32458000       2.95241000      10.12500000       0.18234100       0.03515500      -0.04493200
C       -0.92967000       8.58894000      10.12500000       0.00359800       0.00372400       0.01541800
C        8.83308000       2.95241000      10.12500000      -0.01336400      -0.01957300       0.01442200
C        5.57883000       8.58894000      10.12500000      -0.01052000       0.00341400       0.01531300
C        1.85954000       5.36812000      10.12500000       0.07007900       0.16576400       0.02692600
C       -1.39471000      11.00464000      10.12500000       0.01382600      -0.02535100      -0.00185000
C        8.36804000       5.36812000      10.12500000       0.00760000      -0.02316600      -0.00142200
C        5.11379000      11.00464000      10.12500000       0.03377000      -0.01364100      -0.00917400
C        4.64896000       2.14718000      10.12500000      -0.00832500       0.02841900       0.00714800
C        1.39471000       7.78370000      10.12500000       0.01181700       0.01698700       0.01445600
C       11.15746000       2.14718000      10.12500000      -0.18181200      -0.02983300       0.04323300
C        7.90321000       7.78370000      10.12500000       0.01303400       0.01049700       0.01488600
Li       0.92987000       2.68400000      12.00000000       0.00014400      -0.00137500       0.00000000
113
Lattice="13.017000198 0.0 0.0 -6.508500099 11.273052853 0.0 0.0 0.0 24.0" Properties=species:S:1:pos:R:3:forces:R:3 stress="-0.003969169139932067 1.5241765285406918e-05 -0.0 1.5241765285406918e-05 -0.003951081246485257 -0.0 -0.0 -0.0 0.0046333031599808" free_energy=-1042.38363828 energy=-1042.37881656 pbc="T T T"
C        0.00000000       0.00000000      13.87220000      -0.05901300      -0.18391200      -0.00761100
C        9.76275000       5.63653000      13.87358000      -0.00285400       0.00721100      -0.00831800
C        6.50850000       0.00000000      13.87356000       0.00342600       0.00502800      -0.01026200
C        3.25425000       5.63653000      13.87394000      -0.02249700      -0.00449400      -0.01510800
C       -0.46484000       2.41559000      13.87803000      -0.18251600      -0.03607300       0.03824500
C       -3.71909000       8.05212000      13.87510000      -0.00832300      -0.00198500      -0.00176700
C        6.04366000       2.41559000      13.87515000       0.00869500       0.02130900       0.00078600
C        2.78941000       8.05212000      13.87511000       0.00578800      -0.00167400      -0.00298600
C       -0.92974000       4.83129000      13.87376000      -0.13305100       0.13231300       0.00453900
C       -4.18399000      10.46782000      13.87550000      -0.00203600       0.01300000      -0.00567500
C        5.57876000       4.83129000      13.87515000      -0.00169500      -0.00995300       0.00128700
C        2.32451000      10.46782000      13.87513000      -0.00674800      -0.01427000      -0.00084500
C        1.85967000       1.61036000      13.87820000       0.13036700      -0.15405000       0.03396000
C       -1.39458000       7.24688000      13.87532000      -0.02019100      -0.00820500      -0.00299400
C        8.36817000       1.61036000      13.87528000       0.00116300       0.00080700      -0.00671900
C        5.11392000       7.24688000      13.87527000       0.00849300      -0.01128300      -0.00560800
C        1.39464000       4.02606000      13.87803000       0.06151800       0.18861200       0.03822600
C       -1.85961000       9.66258000      13.87511000       0.00098500       0.00845300      -0.00290500
C        7.90314000       4.02606000      13.87510000       0.00778700       0.02085200      -0.00175300
C        4.64889000       9.66258000      13.87515000       0.01946500      -0.00549800       0.00091700
C        4.18412000       0.80523000      13.87566000      -0.02749100      -0.00361700      -0.00975700
C        0.92987000       6.44176000      13.87566000       0.01234600      -0.01689300      -0.00973900
C       10.69262000       0.80523000      13.87566000       0.00398700       0.02427500      -0.00986900
C        7.43837000       6.44176000      13.87530000      -0.00372400       0.00128800      -0.00608600
C        3.71915000       3.22082000      13.87392000       0.18154100       0.03803000      -0.00004300
C        0.46490000       8.85735000      13.87529000      -0.01362400       0.00126900      -0.00517600
C       10.22765000       3.22082000      13.87566000       0.00761400      -0.01641000      -0.00992700
C        6.97340000       8.85735000      13.87531000      -0.01241100      -0.00525500      -0.00307900
C       -2.32445000       4.56288000      13.87544000       0.02729700       0.01671200      -0.01144500
C       -5.57870000      10.19941000      13.87544000      -0.01261000       0.03004700      -0.01149300
C        4.18405000       4.56288000      13.87544000      -0.00415500      -0.01128800      -0.01137400
C        0.92980000      10.19941000      13.87508000       0.00353800       0.01185500      -0.00773700
C        0.46490000       1.34206000      13.87796000      -0.06803400      -0.19067100       0.03514300
C       -2.78935000       6.97858000      13.87505000      -0.00286500      -0.00302000      -0.00648000
C        6.97340000       1.34206000      13.87504000      -0.00967300      -0.01541800      -0.00530000
C        3.71915000       6.97858000      13.87509000      -0.01581700       0.00572500      -0.00472100
C        0.00007000       3.75765000      13.87789000      -0.13337400       0.14925700       0.04907800
C       -3.25418000       9.39417000      13.87502000       0.01637500       0.00467500       0.00771600
C        6.50857000       3.75765000      13.87498000      -0.00495900      -0.00428200       0.00391500
C        3.25432000       9.39417000      13.87497000      -0.01229000       0.00778800       0.00509500
C        2.78941000       0.53682000      13.87295000       0.13198500      -0.14346900       0.00638400
C       -0.46484000       6.17335000      13.87469000      -0.00574900      -0.01996900      -0.00506000
C        9.29791000       0.53682000      13.87434000      -0.00602100       0.00293400       0.00173100
C        6.04366000       6.17335000      13.87432000      -0.00101400       0.00725400      -0.00026100
C        2.32458000       2.95241000      13.87717000       0.18327600       0.03592100       0.04368700
C       -0.92967000       8.58894000      13.87426000       0.00941800       0.00645100      -0.00058600
C        8.83308000       2.95241000      13.87430000      -0.00755300      -0.01679900       0.00203300
C        5.57883000       8.58894000      13.87426000      -0.00468400       0.00613900      -0.00168400
C        1.85954000       5.36812000      13.87370000       0.06772400       0.16543100      -0.00054300
C       -1.39471000      11.00464000      13.87509000       0.01553600      -0.01744100      -0.00453800
C        8.36804000       5.36812000      13.87507000       0.00930700      -0.01529400      -0.00665000
C        5.11379000      11.00464000      13.87544000       0.03525700      -0.00573800      -0.01137100
C        4.64896000       2.14718000      13.87466000      -0.00928800       0.02252500      -0.00479100
C        1.39471000       7.78370000      13.87430000       0.01072600       0.01126900       0.00212100
C       11.15746000       2.14718000      13.87291000      -0.18115900      -0.03375000       0.00684600
C        7.90321000       7.78370000      13.87428000       0.01196300       0.00476200       0.00008600
C        0.00000000       0.00000000      10.12780000      -0.05901300      -0.18391200       0.00761100
C        9.76275000       5.63653000      10.12642000      -0.00285400       0.00721100       0.00831800
C        6.50850000       0.00000000      10.12644000       0.00342600       0.00502800       0.01026200
C        3.25425000       5.63653000      10.12606000      -0.02249700      -0.00449400       0.01510800
C       -0.46484000       2.41559000      10.12197000      -0.18251600      -0.03607300      -0.03824500
C       -3.71909000       8.05212000      10.12490000      -0.00832300      -0.00198500       0.00176700
C        6.04366000       2.41559000      10.12485000       0.00869500       0.02130900      -0.00078600
C        2.78941000       8.05212000      10.12489000       0.00578800      -0.00167400       0.00298600
C       -0.92974000       4.83129000      10.12624000      -0.13305100       0.13231300      -0.00453900
C       -4.18399000      10.46782000      10.12450000      -0.00203600       0.01300000       0.00567500
C        5.57876000       4.83129000      10.12485000      -0.00169500      -0.00995300      -0.00128700
C        2.32451000      10.46782000      10.12487000      -0.00674800      -0.01427000       0.00084500
C        1.85967000       1.61036000      10.12180000       0.13036700      -0.15405000      -0.03396000
C       -1.39458000       7.24688000      10.12468000      -0.02019100      -0.00820500       0.00299400
C        8.36817000       1.61036000      10.12472000       0.00116300       0.00080700       0.00671900
C        5.11392000       7.24688000      10.12473000       0.00849300      -0.01128300       0.00560800
C        1.39464000       4.02606000      10.12197000       0.06151800       0.18861200      -0.03822600
C       -1.85961000       9.66258000      10.12489000       0.00098500       0.00845300       0.00290500
C        7.90314000       4.02606000      10.12490000       0.00778700       0.02085200       0.00175300
C        4.64889000       9.66258000      10.12485000       0.01946500      -0.00549800      -0.00091700
C        4.18412000       0.80523000      10.12434000      -0.02749100      -0.00361700       0.00975700
C        0.92987000       6.44176000      10.12434000       0.01234600      -0.01689300       0.00973900
C       10.69262000       0.80523000      10.12434000       0.00398700       0.02427500       0.00986900
C        7.43837000       6.44176000      10.12470000      -0.00372400       0.00128800       0.00608600
C        3.71915000       3.22082000      10.12608000       0.18154100       0.03803000       0.00004300
C        0.46490000       8.85735000      10.12471000      -0.01362400       0.00126900       0.00517600
C       10.22765000       3.22082000      10.12434000       0.00761400      -0.01641000       0.00992700
C        6.97340000       8.85735000      10.12469000      -0.01241100      -0.00525500       0.00307900
C       -2.32445000       4.56288000      10.12456000       0.02729700       0.01671200       0.01144500
C       -5.57870000      10.19941000      10.12456000      -0.01261000       0.03004700       0.01149300
C        4.18405000       4.56288000      10.12456000      -0.00415500      -0.01128800       0.01137400
C        0.92980000      10.19941000      10.12492000       0.00353800       0.01185500       0.00773700
C        0.46490000       1.34206000      10.12204000      -0.06803400      -0.19067100      -0.03514300
C       -2.78935000       6.97858000      10.12495000      -0.00286500      -0.00302000       0.00648000
C        6.97340000       1.34206000      10.12496000      -0.00967300      -0.01541800       0.00530000
C        3.71915000       6.97858000      10.12491000      -0.01581700       0.00572500       0.00472100
C        0.00007000       3.75765000      10.12211000      -0.13337400       0.14925700      -0.04907800
C       -3.25418000       9.39417000      10.12498000       0.01637500       0.00467500      -0.00771600
C        6.50857000       3.75765000      10.12502000      -0.00495900      -0.00428200      -0.00391500
C        3.25432000       9.39417000      10.12503000      -0.01229000       0.00778800      -0.00509500
C        2.78941000       0.53682000      10.12705000       0.13198500      -0.14346900      -0.00638400
C       -0.46484000       6.17335000      10.12531000      -0.00574900      -0.01996900       0.00506000
C        9.29791000       0.53682000      10.12566000      -0.00602100       0.00293400      -0.00173100
C        6.04366000       6.17335000      10.12568000      -0.00101400       0.00725400       0.00026100
C        2.32458000       2.95241000      10.12283000       0.18327600       0.03592100      -0.04368700
C       -0.92967000       8.58894000      10.12574000       0.00941800       0.00645100       0.00058600
C        8.83308000       2.95241000      10.12570000      -0.00755300      -0.01679900      -0.00203300
C        5.57883000       8.58894000      10.12574000      -0.00468400       0.00613900       0.00168400
C        1.85954000       5.36812000      10.12630000       0.06772400       0.16543100       0.00054300
C       -1.39471000      11.00464000      10.12491000       0.01553600      -0.01744100       0.00453800
C        8.36804000       5.36812000      10.12493000       0.00930700      -0.01529400       0.00665000
C        5.11379000      11.00464000      10.12456000       0.03525700      -0.00573800       0.01137100
C        4.64896000       2.14718000      10.12534000      -0.00928800       0.02252500       0.00479100
C        1.39471000       7.78370000      10.12570000       0.01072600       0.01126900      -0.00212100
C       11.15746000       2.14718000      10.12709000      -0.18115900      -0.03375000      -0.00684600
C        7.90321000       7.78370000      10.12572000       0.01196300       0.00476200      -0.00008600
Li       0.92988000       2.68393000      12.00000000      -0.00032500      -0.00095900      -0.00000000
113
Lattice="13.017000198 0.0 0.0 -6.508500099 11.273052853 0.0 0.0 0.0 24.0" Properties=species:S:1:pos:R:3:forces:R:3 stress="-0.003987581591853422 1.930498772635692e-05 -0.0 1.930498772635692e-05 -0.003969537388970493 -0.0 -0.0 -0.0 0.0046284909564447444" free_energy=-1042.38398166 energy=-1042.37915997 pbc="T T T"
C        0.00000000       0.00000000      13.87050000      -0.05904500      -0.18356700       0.03497300
C        9.76275000       5.63653000      13.87273000      -0.00298100       0.00739200       0.00434500
C        6.50850000       0.00000000      13.87270000       0.00333200       0.00521600       0.00147900
C        3.25425000       5.63653000      13.87329000      -0.02241900      -0.00428500      -0.01100600
C       -0.46484000       2.41559000      13.87987000      -0.18198900      -0.03156100       0.02230300
C       -3.71909000       8.05212000      13.87517000      -0.00843800      -0.00178600      -0.00410800
C        6.04366000       2.41559000      13.87524000       0.00862500       0.02150100      -0.00062400
C        2.78941000       8.05212000      13.87517000       0.00567300      -0.00148000      -0.00612600
C       -0.92974000       4.83129000      13.87302000      -0.12968600       0.12842200       0.02535100
C       -4.18399000      10.46782000      13.87581000      -0.00220400       0.01311100      -0.01546400
C        5.57876000       4.83129000      13.87524000      -0.00175600      -0.00973600       0.00019400
C        2.32451000      10.46782000      13.87521000      -0.00684400      -0.01407200      -0.00295100
C        1.85967000       1.61036000      13.88013000       0.13299900      -0.15083700       0.01392100
C       -1.39458000       7.24688000      13.87551000      -0.02031200      -0.00795600      -0.00879500
C        8.36817000       1.61036000      13.87544000       0.00104900       0.00101000      -0.01422300
C        5.11392000       7.24688000      13.87544000       0.00839300      -0.01108300      -0.01237500
C        1.39464000       4.02606000      13.87986000       0.05734900       0.18709000       0.02250300
C       -1.85961000       9.66258000      13.87518000       0.00089300       0.00862500      -0.00599800
C        7.90314000       4.02606000      13.87517000       0.00771000       0.02103300      -0.00408900
C        4.64889000       9.66258000      13.87524000       0.01934200      -0.00533500      -0.00042000
C        4.18412000       0.80523000      13.87606000      -0.02749500      -0.00342600      -0.02397700
C        0.92987000       6.44176000      13.87606000       0.01215300      -0.01664300      -0.02394900
C       10.69262000       0.80523000      13.87606000       0.00385000       0.02431300      -0.02416400
C        7.43837000       6.44176000      13.87549000      -0.00383600       0.00146100      -0.01352300
C        3.71915000       3.22082000      13.87327000       0.18052300       0.03555100       0.01426600
C        0.46490000       8.85735000      13.87546000      -0.01370200       0.00146100      -0.01188300
C       10.22765000       3.22082000      13.87606000       0.00748900      -0.01613300      -0.02425100
C        6.97340000       8.85735000      13.87550000      -0.01248100      -0.00510100      -0.00879400
C       -2.32445000       4.56288000      13.87571000       0.02461000       0.01645000      -0.02687100
C       -5.57870000      10.19941000      13.87571000      -0.01511700       0.02973400      -0.02695700
C        4.18405000       4.56288000      13.87571000      -0.00670100      -0.01148200      -0.02677900
C        0.92980000      10.19941000      13.87513000       0.00340800       0.01207000      -0.01225700
C        0.46490000       1.34206000      13.87975000      -0.06921600      -0.19000300       0.01877500
C       -2.78935000       6.97858000      13.87508000       0.00254600      -0.00805900      -0.01291700
C        6.97340000       1.34206000      13.87507000      -0.00427200      -0.02045000      -0.01095600
C        3.71915000       6.97858000      13.87515000      -0.01590600       0.00588700      -0.00752500
C        0.00007000       3.75765000      13.87964000      -0.12862500       0.14669000       0.03086200
C       -3.25418000       9.39417000      13.87503000       0.01626600       0.00482700       0.01214100
C        6.50857000       3.75765000      13.87496000      -0.00506700      -0.00409200       0.00659900
C        3.25432000       9.39417000      13.87495000      -0.01238700       0.00798300       0.00855500
C        2.78941000       0.53682000      13.87171000       0.13012700      -0.14352100       0.03577700
C       -0.46484000       6.17335000      13.87450000      -0.00578100      -0.01967200      -0.00426500
C        9.29791000       0.53682000      13.87394000      -0.00610400       0.00308100       0.01111500
C        6.04366000       6.17335000      13.87390000      -0.00108800       0.00742600       0.00818500
C        2.32458000       2.95241000      13.87848000       0.18055800       0.03626700       0.04470400
C       -0.92967000       8.58894000      13.87381000       0.00929300       0.00661700       0.00797800
C        8.83308000       2.95241000      13.87388000      -0.00769500      -0.01658400       0.01157800
C        5.57883000       8.58894000      13.87381000      -0.00479900       0.00630700       0.00615800
C        1.85954000       5.36812000      13.87292000       0.06615700       0.16881200       0.01781400
C       -1.39471000      11.00464000      13.87514000       0.01549500      -0.01722300      -0.00721600