113
Lattice="13.017000198 0.0 0.0 -6.508500099 11.273052853 0.0 0.0 0.0 24.0" Properties=species:S:1:pos:R:3:forces:R:3 stress="-0.003899314169795181 1.122847491746398e-05 -2.4966036503533037e-08 1.122847491746398e-05 -0.003888254215624116 -1.7913131191284953e-06 -2.4966036503533037e-08 -1.7913131191284953e-06 0.0006216979995018537" free_energy=-1041.55504831 energy=-1041.55022743 pbc="T T T"
C        0.00000000       0.00000000      13.67500000      -0.10637000      -0.31522300       0.16411100
C        9.76275000       5.63653000      13.67500000      -0.00982500      -0.00404900      -0.00802900
C        6.50850000       0.00000000      13.67500000      -0.00059100       0.00257000      -0.00579600
C        3.25425000       5.63653000      13.67500000       0.01880100      -0.01021100      -0.00456500
C       -0.46484000       2.41559000      13.67500000      -0.21367900       0.25111200       0.19640700
C       -3.71909000       8.05212000      13.67500000      -0.01187200      -0.00994700       0.02705200
C        6.04366000       2.41559000      13.67500000       0.00776300       0.01176000       0.02359400
C        2.78941000       8.05212000      13.67500000       0.00887500       0.00046100       0.02582200
C       -0.92974000       4.83129000      13.67500000      -0.04076400      -0.01690100       0.02696300
C       -4.18399000      10.46782000      13.67500000       0.03602600      -0.06099600       0.04191900
C        5.57876000       4.83129000      13.67500000      -0.00498500      -0.00544000       0.02634700
C        2.32451000      10.46782000      13.67500000      -0.00702300      -0.01937500       0.02688900
C        1.85967000       1.61036000      13.67500000       0.32034400       0.05988600       0.19982600
C       -1.39458000       7.24688000      13.67500000      -0.00812900      -0.00735000       0.02930400
C        8.36817000       1.61036000      13.67500000      -0.00674200       0.01585400       0.03053400
C        5.11392000       7.24688000      13.67500000       0.00220100      -0.01203400       0.02707400
C        1.39464000       4.02606000      13.67500000       0.03071900       0.07447600       0.04191200
C       -1.85961000       9.66258000      13.67500000       0.01613300       0.01645400       0.02690100
C        7.90314000       4.02606000      13.67500000       0.00303200       0.01125000       0.02635200
C        4.64889000       9.66258000      13.67500000       0.03088400      -0.01397300       0.02696700
C        4.18412000       0.80523000      13.67500000       0.00177100       0.03109800       0.03025000
C        0.92987000       6.44176000      13.67500000      -0.01721500       0.00312100       0.03018500
C       10.69262000       0.80523000      13.67500000      -0.07473300      -0.01326100       0.04516800
C        7.43837000       6.44176000      13.67500000      -0.00618400      -0.00560000       0.02963500
C        3.71915000       3.22082000      13.67500000       0.01312900      -0.01760100       0.03021600
C        0.46490000       8.85735000      13.67500000      -0.00344900       0.00100900       0.03021300
C       10.22765000       3.22082000      13.67500000       0.00434600       0.02469400       0.03020900
C        6.97340000       8.85735000      13.67500000      -0.02787100      -0.00409400       0.03020300
C       -2.32445000       4.56288000      13.67500000       0.01281200       0.01371600       0.04258300
C       -5.57870000      10.19941000      13.67500000       0.09705400      -0.10814400       0.04353800
C        4.18405000       4.56288000      13.67500000      -0.00548000       0.03515800       0.04126600
C        0.92980000      10.19941000      13.67500000       0.01105000       0.00748000       0.03825600
C        0.46490000       1.34206000      13.67500000      -0.00820900      -0.00297900       3.81937100
C       -2.78935000       6.97858000      13.67500000      -0.00306900       0.00200300       0.03864100
C        6.97340000       1.34206000      13.67500000      -0.00641100      -0.01008300       0.03864200
C        3.71915000       6.97858000      13.67500000      -0.01517300      -0.00116400       0.03863800
C        0.00007000       3.75765000      13.67500000       0.03051800       0.14690900       0.04269300
C       -3.25418000       9.39417000      13.67500000       0.00434500       0.00420000       0.03266900
C        6.50857000       3.75765000      13.67500000      -0.00075300      -0.00121500       0.03765400
C        3.25432000       9.39417000      13.67500000      -0.02224100       0.01090900       0.04065600
C        2.78941000       0.53682000      13.67500000       0.11527000      -0.10174700       0.02781400
C       -0.46484000       6.17335000      13.67500000       0.02395600       0.01202000       0.02573200
C        9.29791000       0.53682000      13.67500000       0.00486000      -0.00765600       0.01773800
C        6.04366000       6.17335000      13.67500000       0.00271600      -0.00051200       0.02273300
C        2.32458000       2.95241000      13.67500000       0.05413900       0.13371600       0.02721500
C       -0.92967000       8.58894000      13.67500000      -0.00302300       0.00130100       0.02193600
C        8.83308000       2.95241000      13.67500000      -0.01870700      -0.02684500       0.02494300
C        5.57883000       8.58894000      13.67500000      -0.00927400      -0.00026500       0.02628500
C        1.85954000       5.36812000      13.67500000       0.00552300      -0.01152000       0.03334300
C       -1.39471000      11.00464000      13.67500000       0.01303100      -0.03791600       0.04132500
C        8.36804000       5.36812000      13.67500000       0.01279400      -0.01325000       0.03832700
C        5.11379000      11.00464000      13.67500000      -0.13117700      -0.06019600       0.04341800
C        4.64896000       2.14718000      13.67500000       0.00296800       0.00677100       0.02627800
C        1.39471000       7.78370000      13.67500000      -0.00154000       0.01143100       0.02193100
C       11.15746000       2.14718000      13.67500000      -0.14482000      -0.00525700       0.02727200
C        7.90321000       7.78370000      13.67500000       0.03067800       0.01190900       0.02493700
C        0.00000000       0.00000000      10.32500000      -0.08954600      -0.27597100      -0.19333600
C        9.76275000       5.63653000      10.32500000       0.01148900      -0.00428100       0.00685700
C        6.50850000       0.00000000      10.32500000       0.00271600      -0.01949300       0.00629200
C        3.25425000       5.63653000      10.32500000      -0.00702300       0.01447100       0.00421600
C       -0.46484000       2.41559000      10.32500000      -0.18367300       0.22406100      -0.22871600
C       -3.71909000       8.05212000      10.32500000       0.02871200       0.00455300      -0.03069600
C        6.04366000       2.41559000      10.32500000       0.00334000      -0.00197600      -0.02804700
C        2.78941000       8.05212000      10.32500000      -0.00557700       0.01317200      -0.02862100
C       -0.92974000       4.83129000      10.32500000      -0.01564500      -0.02664800      -0.03574900
C       -4.18399000      10.46782000      10.32500000       0.13781500      -0.16116300       0.00277000
C        5.57876000       4.83129000      10.32500000      -0.00800000       0.00680300      -0.02896200
C        2.32451000      10.46782000      10.32500000      -0.01785800       0.00037400      -0.03081300
C        1.85967000       1.61036000      10.32500000       0.28724200       0.05183700      -0.22600700
C       -1.39458000       7.24688000      10.32500000       0.01835900       0.00354800      -0.02571900
C        8.36817000       1.61036000      10.32500000      -0.00606600      -0.02175800      -0.02779500
C        5.11392000       7.24688000      10.32500000       0.00089900       0.00342600      -0.02513800
C        1.39464000       4.02606000      10.32500000       0.07228400       0.20814800       0.00273900
C       -1.85961000       9.66258000      10.32500000       0.01025700      -0.00762800      -0.03082000
C        7.90314000       4.02606000      10.32500000      -0.00024900      -0.00222700      -0.02897000
C        4.64889000       9.66258000      10.32500000       0.03453900       0.00919400      -0.03574300
C        4.18412000       0.80523000      10.32500000      -0.01402700       0.02616100      -0.03246100
C        0.92987000       6.44176000      10.32500000       0.01263000       0.01346300      -0.02753100
C       10.69262000       0.80523000      10.32500000      -0.20518000      -0.04048700       0.00602100
C        7.43837000       6.44176000      10.32500000       0.01336400       0.00180300      -0.02568400
C        3.71915000       3.22082000      10.32500000      -0.01256600      -0.02071400      -0.03220100
C        0.46490000       8.85735000      10.32500000      -0.00408400       0.00862900      -0.02678300
C       10.22765000       3.22082000      10.32500000       0.02430000       0.01705900      -0.03218700
C        6.97340000       8.85735000      10.32500000      -0.02525600       0.03075000      -0.03219300
C       -1.39471000       3.48935000      10.32500000      -0.12434800       0.12644800       0.01107100
C       -4.64889000       9.12576000      10.32500000       0.01599900       0.03416700      -0.02856800
C        5.11386000       3.48924000      10.32500000       0.00681300      -0.00736700      -0.02383400
C        1.85961000       9.12576000      10.32500000       0.00818300      -0.01068400      -0.02259200
C        1.39471000       0.26841000      10.32500000       0.17498700      -0.20119400      -0.21911000
C       -1.85954000       5.90494000      10.32500000      -0.02274000      -0.00039400      -0.03925400
C        7.90321000       0.26841000      10.32500000      -0.00034100       0.01149700      -0.03680300
C        4.64896000       5.90494000      10.32500000       0.00344800      -0.00032200      -0.03780400
C        0.92987000       2.68400000      10.32500000       0.08445900       0.25919700      -0.20365000
C       -2.32438000       8.32053000      10.32500000      -0.01141400       0.00085600      -0.02121500
C        7.43837000       2.68400000      10.32500000      -0.00307300       0.01005700      -0.02220400
C        4.18412000       8.32053000      10.32500000       0.01058400      -0.01221900      -0.02365300
C        0.46497000       5.09970000      10.32500000       0.01562900      -0.03271900      -0.02755800
C       -2.78928000      10.73623000      10.32500000      -0.04927700      -0.00606200      -0.02755800
C        6.97347000       5.09970000      10.32500000      -0.00938000      -0.00069500      -0.02271200
C        3.71922000      10.73623000      10.32500000       0.00595900       0.03660400      -0.02756900
C        3.25438000       1.87877000      10.32500000       0.18279900       0.03968700      -0.00458900
C        0.00013000       7.51529000      10.32500000      -0.01504700      -0.00244600      -0.03749400
C        9.76288000       1.87877000      10.32500000       0.02013900      -0.03193800      -0.04346200
C        6.50863000       7.51529000      10.32500000      -0.01150900      -0.00301000      -0.03873900
C        2.78935000       4.29447000      10.32500000      -0.02473400      -0.00967200      -0.04415000
C       -0.46490000       9.93100000      10.32500000       0.01801900       0.00592200      -0.03818700
C        9.29785000       4.29447000      10.32500000       0.01532600       0.00306000      -0.03943500
C        6.04360000       9.93100000      10.32500000      -0.04433500      -0.18653600      -0.00528700
C        5.57876000       1.07353000      10.32500000      -0.00759500       0.01008100      -0.03926000
C        2.32451000       6.71006000      10.32500000      -0.00789900      -0.01553500      -0.03681700
C       12.08726000       1.07353000      10.32500000      -0.27993900      -0.06069900      -0.21931100
C        8.83301000       6.71006000      10.32500000      -0.02012500      -0.01281100      -0.03780600
Li       0.46490000       1.34206000      12.00000000      -0.00021800       0.00515400      -3.36866700
113
Lattice="13.017000198 0.0 0.0 -6.508500099 11.273052853 0.0 0.0 0.0 24.0" Properties=species:S:1:pos:R:3:forces:R:3 stress="-0.003985540618369259 1.4411644571664442e-05 -6.803244947212751e-07 1.4411644571664442e-05 -0.003957266582029007 3.6075922747605235e-06 -6.803244947212751e-07 3.6075922747605235e-06 0.0019885073584516508" free_energy=-1041.89073571 energy=-1041.88591471 pbc="T T T"
C        0.00000000       0.00000000      13.68292000      -0.03560900      -0.10790300       1.02406500
C        9.76275000       5.63653000      13.67461000      -0.00903100      -0.00304500       0.03764100
C        6.50850000       0.00000000      13.67472000      -0.00017900       0.00232200       0.03151300
C        3.25425000       5.63653000      13.67478000       0.01516000      -0.00844000       0.02209300
C       -0.46484000       2.41559000      13.68448000      -0.06455200       0.09336700       1.02342100
C       -3.71909000       8.05212000      13.67631000      -0.01029500      -0.00640400       0.02714100
C        6.04366000       2.41559000      13.67614000       0.00669400       0.01153500       0.04697100
C        2.78941000       8.05212000      13.67625000       0.00672000       0.00133500       0.03658600
C       -0.92974000       4.83129000      13.67630000      -0.03251900      -0.00826400      -0.05711000
C       -4.18399000      10.46782000      13.67702000       0.03642300      -0.06004800       0.09565600
C        5.57876000       4.83129000      13.67627000      -0.00566700      -0.00444100       0.03515400
C        2.32451000      10.46782000      13.67630000      -0.00791500      -0.01642100       0.02939000
C        1.85967000       1.61036000      13.68464000       0.12166300       0.01854900       1.01743100
C       -1.39458000       7.24688000      13.67641000      -0.00961600      -0.00565600       0.03022200
C        8.36817000       1.61036000      13.67647000      -0.00511600       0.01441000       0.02061300
C        5.11392000       7.24688000      13.67631000      -0.00072600      -0.01231900       0.03854500
C        1.39464000       4.02606000      13.67702000       0.01930200       0.06552300       0.09542600
C       -1.85961000       9.66258000      13.67630000       0.01439600       0.01554900       0.02921400
C        7.90314000       4.02606000      13.67627000       0.00290800       0.01147800       0.03491000
C        4.64889000       9.66258000      13.67630000       0.01960000      -0.00967300      -0.05735700
C        4.18412000       0.80523000      13.67646000       0.00123100       0.02153600      -0.06552900
C        0.92987000       6.44176000      13.67646000      -0.01802300       0.00411300       0.02105100
C       10.69262000       0.80523000      13.67718000      -0.06403200      -0.00548900       0.09064700
C        7.43837000       6.44176000      13.67643000      -0.00878800      -0.00379600       0.02677600
C        3.71915000       3.22082000      13.67646000       0.01152600      -0.01239300      -0.06554200
C        0.46490000       8.85735000      13.67646000      -0.00324000      -0.00338900       0.02067400
C       10.22765000       3.22082000      13.67646000      -0.00266100       0.01374000      -0.06552500
C        6.97340000       8.85735000      13.67646000      -0.01807800      -0.01160200      -0.06552400
C       -2.32445000       4.56288000      13.67705000       0.00409900       0.01181500       0.03117700
C       -5.57870000      10.19941000      13.67710000       0.07941900      -0.11252900      -0.00007300
C        4.18405000       4.56288000      13.67699000      -0.01033300       0.03144000       0.01020300
C        0.92980000      10.19941000      13.67685000       0.00240200       0.00673900       0.01621300
C        0.46490000       1.34206000      13.85926000      -0.01117300      -0.00186800      -1.57389800
C       -2.78935000       6.97858000      13.67686000       0.00258900      -0.00361800       0.01444100
C        6.97340000       1.34206000      13.67686000      -0.00153100      -0.01437300       0.01444700
C        3.71915000       6.97858000      13.67686000      -0.00879100      -0.00542100       0.01423500
C        0.00007000       3.75765000      13.67706000       0.02080000       0.14617900       0.01754700
C       -3.25418000       9.39417000      13.67658000       0.00404000       0.00360400       0.04153000
C        6.50857000       3.75765000      13.67682000      -0.00170100       0.00039500       0.03280800
C        3.25432000       9.39417000      13.67696000      -0.02042900       0.00939100       0.02816100
C        2.78941000       0.53682000      13.67634000       0.12150000      -0.09516600       0.00607700
C       -0.46484000       6.17335000      13.67624000       0.02285800       0.00718200       0.01878500
C        9.29791000       0.53682000      13.67586000       0.00803300      -0.01016700       0.03420400
C        6.04366000       6.17335000      13.67610000       0.00806800      -0.00348100       0.02558000
C        2.32458000       2.95241000      13.67631000       0.06027300       0.13006100       0.00885200
C       -0.92967000       8.58894000      13.67606000      -0.00395700       0.00161700       0.02741200
C        8.83308000       2.95241000      13.67620000      -0.01902500      -0.02176700       0.02139200
C        5.57883000       8.58894000      13.67627000      -0.00888700       0.00310700       0.04035200
C        1.85954000       5.36812000      13.67661000       0.00816800      -0.00156300       0.02346200
C       -1.39471000      11.00464000      13.67699000       0.01548600      -0.02574200       0.01006100
C        8.36804000       5.36812000      13.67685000       0.01387600      -0.00503000       0.01474200
C        5.11379000      11.00464000      13.67709000      -0.12400600      -0.05863900      -0.00032600
C        4.64896000       2.14718000      13.67627000      -0.00006400       0.00834000       0.04024800
C        1.39471000       7.78370000      13.67606000      -0.00114200       0.01221800       0.02737100
C       11.15746000       2.14718000      13.67632000      -0.14489800       0.00457000       0.00891500
C        7.90321000       7.78370000      13.67620000       0.02661000       0.01085900       0.02137400
C        0.00000000       0.00000000      10.31567000      -0.13451000      -0.40414700      -0.33379000
C        9.76275000       5.63653000      10.32533000       0.01084100      -0.00178600      -0.02454500
C        6.50850000       0.00000000      10.32530000       0.00294100      -0.02081500      -0.02484200
C        3.25425000       5.63653000      10.32520000      -0.01099300       0.01600000      -0.02566600
C       -0.46484000       2.41559000      10.31397000      -0.26577800       0.33523100      -0.32545000
C       -3.71909000       8.05212000      10.32352000       0.02972700       0.01056100      -0.02293600
C        6.04366000       2.41559000      10.32365000       0.00281300      -0.00067500      -0.02360700
C        2.78941000       8.05212000      10.32362000      -0.00910900       0.01697000      -0.02215800
C       -0.92974000       4.83129000      10.32328000      -0.01117100      -0.02938000      -0.01342100
C       -4.18399000      10.46782000      10.32513000       0.15520200      -0.17653100      -0.04615800
C        5.57876000       4.83129000      10.32360000      -0.00644700       0.00724500      -0.02661200
C        2.32451000      10.46782000      10.32351000      -0.01376300       0.00061400      -0.02264300
C        1.85967000       1.61036000      10.31410000       0.42836300       0.07696800      -0.33191500
C       -1.39458000       7.24688000      10.32376000       0.01622900       0.00172300      -0.02998500
C        8.36817000       1.61036000      10.32366000      -0.00848800      -0.02723000      -0.02895900
C        5.11392000       7.24688000      10.32379000      -0.00415900      -0.00110300      -0.02958100
C        1.39464000       4.02606000      10.32513000       0.07689100       0.22781100      -0.04637500
C       -1.85961000       9.66258000      10.32351000       0.00460100      -0.01107400      -0.02262400
C        7.90314000       4.02606000      10.32360000      -0.00375800      -0.00409000      -0.02666700
C        4.64889000       9.66258000      10.32328000       0.03133700       0.00766800      -0.01347500
C        4.18412000       0.80523000      10.32343000      -0.01824400       0.02856100      -0.01782200
C        0.92987000       6.44176000      10.32367000       0.01345800       0.01394400      -0.03091000
C       10.69262000       0.80523000      10.32529000      -0.22223500      -0.04745200      -0.05049700
C        7.43837000       6.44176000      10.32376000       0.01394100       0.00274600      -0.03093200
C        3.71915000       3.22082000      10.32345000      -0.01462200      -0.03031100      -0.01767700
C        0.46490000       8.85735000      10.32371000      -0.00425700       0.00940500      -0.03064000
C       10.22765000       3.22082000      10.32345000       0.02712700       0.00918800      -0.01731500
C        6.97340000       8.85735000      10.32345000      -0.02651400       0.02637000      -0.01755800
C       -1.39471000       3.48935000      10.32553000      -0.13578300       0.14606200      -0.04880300
C       -4.64889000       9.12576000      10.32362000       0.01521500       0.03395600      -0.01587900
C        5.11386000       3.48924000      10.32385000       0.00456500      -0.01391300      -0.02774500
C        1.85961000       9.12576000      10.32391000       0.00769900      -0.01703500      -0.02851500
C        1.39471000       0.26841000      10.31443000       0.25495300      -0.30707700      -0.32001400
C       -1.85954000       5.90494000      10.32311000      -0.02607300      -0.01083800      -0.01726800
C        7.90321000       0.26841000      10.32322000      -0.00286300       0.00530300      -0.01638900
C        4.64896000       5.90494000      10.32318000       0.00342000      -0.00710300      -0.01692000
C        0.92987000       2.68400000      10.31518000       0.13437700       0.38344500      -0.33845900
C       -2.32438000       8.32053000      10.32398000      -0.00658600       0.00341000      -0.02715200
C        7.43837000       2.68400000      10.32393000       0.00093900       0.01501100      -0.02762000
C        4.18412000       8.32053000      10.32386000       0.01941300      -0.00833200      -0.02791400
C        0.46497000       5.09970000      10.32367000       0.01549200      -0.03845600      -0.01830600
C       -2.78928000      10.73623000      10.32367000      -0.05575500      -0.00619400      -0.01834400
C        6.97347000       5.09970000      10.32390000      -0.00980800       0.00025200      -0.02771300
C        3.71922000      10.73623000      10.32367000       0.00738000       0.03907100      -0.01842700
C        3.25438000       1.87877000      10.32478000       0.19919600       0.04465100      -0.05526900
C        0.00013000       7.51529000      10.32319000      -0.01686600      -0.00184100      -0.03594300
C        9.76288000       1.87877000      10.32290000       0.02291600      -0.03305800      -0.02747500
C        6.50863000       7.51529000      10.32313000      -0.01268800      -0.00082600      -0.03525400
C        2.78935000       4.29447000      10.32287000      -0.03470500      -0.00473200      -0.00929800
C       -0.46490000       9.93100000      10.32316000       0.01187900       0.01385400      -0.01778800
C        9.29785000       4.29447000      10.32310000       0.01022100       0.00966100      -0.01708400
C        6.04360000       9.93100000      10.32474000      -0.05537000      -0.19739200      -0.04278500
C        5.57876000       1.07353000      10.32311000      -0.00163400       0.01229800      -0.01711100
C        2.32451000       6.71006000      10.32322000       0.00117400      -0.01614000      -0.01630600
C       12.08726000       1.07353000      10.31442000      -0.39901800      -0.08888200      -0.32032300
C        8.83301000       6.71006000      10.32318000      -0.01276800      -0.01532800      -0.01672900
Li       0.46489000       1.34231000      11.83749000      -0.00019900       0.00143300       0.82775000
113
Lattice="13.017000198 0.0 0.0 -6.508500099 11.273052853 0.0 0.0 0.0 24.0" Properties=species:S:1:pos:R:3:forces:R:3 stress="-0.003983100188301038 1.7900648173033185e-05 1.5291697358413982e-06 1.7900648173033185e-05 -0.003966566430626573 2.746264015388634e-06 1.5291697358413982e-06 2.746264015388634e-06 0.0016626319254801599" free_energy=-1041.95011496 energy=-1041.94529406 pbc="T T T"
C        0.00000000       0.00000000      13.68041000      -0.07069600      -0.20988600       0.73545100
C        9.76275000       5.63653000      13.67474000      -0.00883800      -0.00370500       0.02316000
C        6.50850000       0.00000000      13.67481000      -0.00001900       0.00273400       0.01966000
C        3.25425000       5.63653000      13.67485000       0.01473600      -0.00939900       0.01357100
C       -0.46484000       2.41559000      13.68147000      -0.13666900       0.17080100       0.74719200
C       -3.71909000       8.05212000      13.67589000      -0.01030900      -0.00623400       0.02990000
C        6.04366000       2.41559000      13.67578000       0.00643200       0.01127500       0.03954300
C        2.78941000       8.05212000      13.67585000       0.00758100       0.00039600       0.03601000
C       -0.92974000       4.83129000      13.67589000      -0.03410500      -0.01146100      -0.02802700
C       -4.18399000      10.46782000      13.67638000       0.03466600      -0.05620200       0.08132100
C        5.57876000       4.83129000      13.67587000      -0.00556100      -0.00525700       0.03515300
C        2.32451000      10.46782000      13.67589000      -0.00734900      -0.01628700       0.03139900
C        1.85967000       1.61036000      13.68158000       0.21938300       0.03879000       0.74482100
C       -1.39458000       7.24688000      13.67597000      -0.01045300      -0.00817400       0.03414300
C        8.36817000       1.61036000      13.67601000      -0.00724700       0.01069000       0.02806600
C        5.11392000       7.24688000      13.67589000      -0.00047200      -0.01260100       0.03769900
C        1.39464000       4.02606000      13.67638000       0.02202700       0.06318500       0.08116300
C       -1.85961000       9.66258000      13.67589000       0.01368900       0.01585400       0.03128100
C        7.90314000       4.02606000      13.67587000       0.00324300       0.01187900       0.03498800
C        4.64889000       9.66258000      13.67589000       0.02290000      -0.00960700      -0.02820800
C        4.18412000       0.80523000      13.67600000       0.00202800       0.02320500      -0.03000500
C        0.92987000       6.44176000      13.67599000      -0.01545100       0.00235000       0.02948500
C       10.69262000       0.80523000      13.67649000      -0.06826600      -0.01047600       0.07574300
C        7.43837000       6.44176000      13.67598000      -0.00680700      -0.00469400       0.03320900
C        3.71915000       3.22082000      13.67600000       0.01019200      -0.00999600      -0.02988000
C        0.46490000       8.85735000      13.67600000      -0.00376400       0.00169500       0.02933200
C       10.22765000       3.22082000      13.67600000      -0.00054300       0.01955000      -0.02986700
C        6.97340000       8.85735000      13.67600000      -0.02069600      -0.00450500      -0.02987500
C       -2.32445000       4.56288000      13.67640000       0.00411200       0.01189900       0.03236400
C       -5.57870000      10.19941000      13.67643000       0.08705700      -0.11379200       0.01177100
C        4.18405000       4.56288000      13.67636000      -0.01172100       0.03143900       0.01755200
C        0.92980000      10.19941000      13.67626000       0.00038600       0.00605800       0.02232000
C        0.46490000       1.34206000      13.80083000       0.00042400       0.00447800      -0.25792500
C       -2.78935000       6.97858000      13.67627000       0.00471100      -0.00523400       0.02127900
C        6.97340000       1.34206000      13.67627000      -0.00063700      -0.01694000       0.02128200
C        3.71915000       6.97858000      13.67627000      -0.00810200      -0.00646800       0.02113300
C        0.00007000       3.75765000      13.67641000       0.02747800       0.14992500       0.02600700
C       -3.25418000       9.39417000      13.67608000       0.00585500       0.00149800       0.03856500
C        6.50857000       3.75765000      13.67624000      -0.00188900       0.00025200       0.03426200
C        3.25432000       9.39417000      13.67634000      -0.02050100       0.01045100       0.03201600
C        2.78941000       0.53682000      13.67592000       0.12300500      -0.10420500       0.01603300
C       -0.46484000       6.17335000      13.67585000       0.02648200       0.00729000       0.02207300
C        9.29791000       0.53682000      13.67558000       0.00564700      -0.01109300       0.02858000
C        6.04366000       6.17335000      13.67575000       0.00840600      -0.00369500       0.02435400
C        2.32458000       2.95241000      13.67590000       0.05764100       0.13455500       0.01654900
C       -0.92967000       8.58894000      13.67572000      -0.00373900       0.00107300       0.02557900
C        8.83308000       2.95241000      13.67582000      -0.01845700      -0.02351300       0.02240400
C        5.57883000       8.58894000      13.67587000      -0.00939300       0.00002800       0.03729500