125
Lattice="13.696700096 0.0 0.0 -6.848350048 11.861690231 0.0 0.0 0.0 24.0" Properties=species:S:1:pos:R:3:forces:R:3 stress="-0.003966997094756259 4.774754481300692e-06 -0.0 4.774754481300692e-06 -0.003961822883690902 -0.0 -0.0 -0.0 0.00471611550306302" free_energy=-1153.79923852 energy=-1153.79374809 pbc="T T T"
C        0.00000000       0.00000000      13.87500000      -0.02829600      -0.18849800      -0.04282400
C       -0.88364000       2.29583000      13.87500000      -0.17772700      -0.06487400       0.05155400
C       -1.76729000       4.59166000      13.87500000      -0.14857600       0.11998400      -0.03071600
C       -2.65106000       6.88749000      13.87500000      -0.01753500      -0.01128200      -0.00179900
C       -3.53464000       9.18320000      13.87500000      -0.01323800      -0.01700800       0.00270700
C       -4.41828000      11.47903000      13.87500000       0.00698200       0.02239700       0.00031400
C        1.54643000       1.91317000      13.87500000       0.14967000      -0.12697900       0.05004800
C        0.66278000       4.20900000      13.87500000       0.03476100       0.19573400       0.06169300
C       -0.22100000       6.50483000      13.87500000       0.01933800      -0.00663600      -0.00172900
C       -1.10464000       8.80066000      13.87500000      -0.00784300      -0.00865600      -0.00958300
C       -1.98821000      11.09637000      13.87500000      -0.01496100       0.00650300      -0.00302300
C        3.97649000       1.53051000      13.87500000      -0.01174700      -0.01203600       0.01023400
C        3.09285000       3.82634000      13.87500000       0.18553300       0.07551400      -0.03375100
C        2.20907000       6.12217000      13.87500000      -0.01851400      -0.00770300       0.00532700
C        1.32543000       8.41800000      13.87500000      -0.00679000      -0.01586400      -0.00981100
C        0.44179000      10.71383000      13.87500000       0.00022100       0.00155600      -0.00362800
C        6.40656000       1.14786000      13.87500000       0.00806900       0.02203400      -0.00619500
C        5.52292000       3.44369000      13.87500000       0.00470600       0.02163700      -0.00900100
C        4.63928000       5.73952000      13.87500000       0.00736100      -0.01513800      -0.00368800
C        3.75550000       8.03535000      13.87500000       0.01570800      -0.00266900      -0.00265900
C        2.87186000      10.33118000      13.87500000       0.00366200      -0.00910400       0.00257800
C        8.83656000       0.76532000      13.87500000       0.00267600       0.01137300      -0.00606600
C        7.95299000       3.06103000      13.87500000      -0.01006400       0.02290700      -0.00949400
C        7.06935000       5.35686000      13.87500000       0.00320500       0.00070200      -0.00983900
C        6.18557000       7.65269000      13.87500000      -0.00928600      -0.01385000       0.00215900
C        5.30192000       9.94852000      13.87500000       0.01347400      -0.01142200      -0.00681000
C       11.26663000       0.38266000      13.87500000       0.01158800       0.02894800      -0.00114000
C       10.38299000       2.67849000      13.87500000       0.01829600      -0.00277700       0.01011800
C        9.49941000       4.97420000      13.87500000      -0.01065200       0.02389400      -0.00369100
C        8.61564000       7.27003000      13.87500000      -0.00803900      -0.00270600      -0.00606000
C        7.73199000       9.56586000      13.87500000      -0.01686400      -0.00175000      -0.00850800
C       -4.86014000       8.67303000      13.87500000       0.00629700       0.02449500      -0.01133800
C       -5.74378000      10.96886000      13.87500000      -0.02676000       0.02105300       0.00966900
C        0.22093000       1.40300000      13.87500000      -0.03000900      -0.19907800       0.06100300
C       -0.66271000       3.69883000      13.87500000      -0.15694900       0.10965400       0.05281900
C       -1.54649000       5.99466000      13.87500000      -0.01821500      -0.03234700      -0.00508200
C       -2.43014000       8.29049000      13.87500000       0.01754000       0.01302600      -0.00898900
C       -3.31371000      10.58620000      13.87500000       0.01191500       0.02100400      -0.00564900
C        2.65100000       1.02034000      13.87500000       0.13793900      -0.11654900      -0.03047900
C        1.76735000       3.31617000      13.87500000       0.16567600       0.05086500       0.04771500
C        0.88357000       5.61200000      13.87500000       0.02519300       0.18924600      -0.03703800
C       -0.00007000       7.90783000      13.87500000       0.01074800       0.00551600      -0.00420000
C       -0.88371000      10.20366000      13.87500000       0.01125700       0.00870700      -0.01225800
C        5.08106000       0.63768000      13.87500000      -0.01106300      -0.00253900      -0.00335300
C        4.19742000       2.93351000      13.87500000      -0.02491600       0.01394100       0.00394100
C        3.31378000       5.22934000      13.87500000      -0.00539400      -0.02299600       0.00237800
C        2.43000000       7.52517000      13.87500000      -0.00334100       0.00108900      -0.01221400
C        1.54636000       9.82101000      13.87500000       0.00275600       0.00036800      -0.01138300
C        7.51106000       0.25514000      13.87500000      -0.00533000      -0.00509700      -0.00568800
C        6.62749000       2.55086000      13.87500000       0.00973000      -0.00530600      -0.00776700
C        5.74385000       4.84669000      13.87500000      -0.00254700      -0.01895700      -0.00812600
C        4.86007000       7.14252000      13.87500000       0.00306300       0.01584700      -0.00381900
C        3.97643000       9.43835000      13.87500000      -0.00431800       0.00279600      -0.00613200
C        3.09278000      11.73418000      13.87500000       0.01168900       0.00416000      -0.01087000
C        9.05749000       2.16832000      13.87500000       0.00569000      -0.02761200      -0.00317200
C        8.17392000       4.46403000      13.87500000      -0.01798700      -0.01712700      -0.00790600
C        7.29014000       6.75986000      13.87500000       0.00203200       0.00503700      -0.00361300
C        6.40649000       9.05569000      13.87500000       0.00659800       0.02018500      -0.00279900
C        5.52285000      11.35152000      13.87500000       0.03087800       0.01286500       0.00957700
C       11.48756000       1.78566000      13.87500000      -0.17560000      -0.08171400      -0.03048600
C       10.60392000       4.08149000      13.87500000       0.02298500      -0.00864900       0.00401100
C        9.72014000       6.37732000      13.87500000       0.01518300      -0.01354200      -0.00568900
C        0.00000000       0.00000000      10.12500000      -0.02829600      -0.18849800       0.04282400
C       -0.88364000       2.29583000      10.12500000      -0.17772700      -0.06487400      -0.05155400
C       -1.76729000       4.59166000      10.12500000      -0.14857600       0.11998400       0.03071600
C       -2.65106000       6.88749000      10.12500000      -0.01753500      -0.01128200       0.00179900
C       -3.53464000       9.18320000      10.12500000      -0.01323800      -0.01700800      -0.00270700
C       -4.41828000      11.47903000      10.12500000       0.00698200       0.02239700      -0.00031400
C        1.54643000       1.91317000      10.12500000       0.14967000      -0.12697900      -0.05004800
C        0.66278000       4.20900000      10.12500000       0.03476100       0.19573400      -0.06169300
C       -0.22100000       6.50483000      10.12500000       0.01933800      -0.00663600       0.00172900
C       -1.10464000       8.80066000      10.12500000      -0.00784300      -0.00865600       0.00958300
C       -1.98821000      11.09637000      10.12500000      -0.01496100       0.00650300       0.00302300
C        3.97649000       1.53051000      10.12500000      -0.01174700      -0.01203600      -0.01023400
C        3.09285000       3.82634000      10.12500000       0.18553300       0.07551400       0.03375100
C        2.20907000       6.12217000      10.12500000      -0.01851400      -0.00770300      -0.00532700
C        1.32543000       8.41800000      10.12500000      -0.00679000      -0.01586400       0.00981100
C        0.44179000      10.71383000      10.12500000       0.00022100       0.00155600       0.00362800
C        6.40656000       1.14786000      10.12500000       0.00806900       0.02203400       0.00619500
C        5.52292000       3.44369000      10.12500000       0.00470600       0.02163700       0.00900100
C        4.63928000       5.73952000      10.12500000       0.00736100      -0.01513800       0.00368800
C        3.75550000       8.03535000      10.12500000       0.01570800      -0.00266900       0.00265900
C        2.87186000      10.33118000      10.12500000       0.00366200      -0.00910400      -0.00257800
C        8.83656000       0.76532000      10.12500000       0.00267600       0.01137300       0.00606600
C        7.95299000       3.06103000      10.12500000      -0.01006400       0.02290700       0.00949400
C        7.06935000       5.35686000      10.12500000       0.00320500       0.00070200       0.00983900
C        6.18557000       7.65269000      10.12500000      -0.00928600      -0.01385000      -0.00215900
C        5.30192000       9.94852000      10.12500000       0.01347400      -0.01142200       0.00681000
C       11.26663000       0.38266000      10.12500000       0.01158800       0.02894800       0.00114000
C       10.38299000       2.67849000      10.12500000       0.01829600      -0.00277700      -0.01011800
C        9.49941000       4.97420000      10.12500000      -0.01065200       0.02389400       0.00369100
C        8.61564000       7.27003000      10.12500000      -0.00803900      -0.00270600       0.00606000
C        7.73199000       9.56586000      10.12500000      -0.01686400      -0.00175000       0.00850800
C       -4.86014000       8.67303000      10.12500000       0.00629700       0.02449500       0.01133800
C       -5.74378000      10.96886000      10.12500000      -0.02676000       0.02105300      -0.00966900
C        0.22093000       1.40300000      10.12500000      -0.03000900      -0.19907800      -0.06100300
C       -0.66271000       3.69883000      10.12500000      -0.15694900       0.10965400      -0.05281900
C       -1.54649000       5.99466000      10.12500000      -0.01821500      -0.03234700       0.00508200
C       -2.43014000       8.29049000      10.12500000       0.01754000       0.01302600       0.00898900
C       -3.31371000      10.58620000      10.12500000       0.01191500       0.02100400       0.00564900
C        2.65100000       1.02034000      10.12500000       0.13793900      -0.11654900       0.03047900
C        1.76735000       3.31617000      10.12500000       0.16567600       0.05086500      -0.04771500
C        0.88357000       5.61200000      10.12500000       0.02519300       0.18924600       0.03703800
C       -0.00007000       7.90783000      10.12500000       0.01074800       0.00551600       0.00420000
C       -0.88371000      10.20366000      10.12500000       0.01125700       0.00870700       0.01225800
C        5.08106000       0.63768000      10.12500000      -0.01106300      -0.00253900       0.00335300
C        4.19742000       2.93351000      10.12500000      -0.02491600       0.01394100      -0.00394100
C        3.31378000       5.22934000      10.12500000      -0.00539400      -0.02299600      -0.00237800
C        2.43000000       7.52517000      10.12500000      -0.00334100       0.00108900       0.01221400
C        1.54636000       9.82101000      10.12500000       0.00275600       0.00036800       0.01138300
C        7.51106000       0.25514000      10.12500000      -0.00533000      -0.00509700       0.00568800
C        6.62749000       2.55086000      10.12500000       0.00973000      -0.00530600       0.00776700
C        5.74385000       4.84669000      10.12500000      -0.00254700      -0.01895700       0.00812600
C        4.86007000       7.14252000      10.12500000       0.00306300       0.01584700       0.00381900
C        3.97643000       9.43835000      10.12500000      -0.00431800       0.00279600       0.00613200
C        3.09278000      11.73418000      10.12500000       0.01168900       0.00416000       0.01087000
C        9.05749000       2.16832000      10.12500000       0.00569000      -0.02761200       0.00317200
C        8.17392000       4.46403000      10.12500000      -0.01798700      -0.01712700       0.00790600
C        7.29014000       6.75986000      10.12500000       0.00203200       0.00503700       0.00361300
C        6.40649000       9.05569000      10.12500000       0.00659800       0.02018500       0.00279900
C        5.52285000      11.35152000      10.12500000       0.03087800       0.01286500      -0.00957700
C       11.48756000       1.78566000      10.12500000      -0.17560000      -0.08171400       0.03048600
C       10.60392000       4.08149000      10.12500000       0.02298500      -0.00864900      -0.00401100
C        9.72014000       6.37732000      10.12500000       0.01518300      -0.01354200       0.00568900
Li       0.44186000       2.80600000      12.00000000       0.00028700      -0.00514700      -0.00000000
125
Lattice="13.696700096 0.0 0.0 -6.848350048 11.861690231 0.0 0.0 0.0 24.0" Properties=species:S:1:pos:R:3:forces:R:3 stress="-0.003961073902595796 3.950875276684102e-06 -0.0 3.950875276684102e-06 -0.003954420453867604 -0.0 -0.0 -0.0 0.00472919770619087" free_energy=-1153.80113339 energy=-1153.79563935 pbc="T T T"
C        0.00000000       0.00000000      13.87293000      -0.02828700      -0.18817900       0.00962500
C       -0.88364000       2.29583000      13.87749000      -0.17469900      -0.06434800       0.03433300
C       -1.76729000       4.59166000      13.87352000      -0.14854600       0.12028600      -0.00339500
C       -2.65106000       6.88749000      13.87491000      -0.01755500      -0.01089300      -0.00492700
C       -3.53464000       9.18320000      13.87513000      -0.01116200      -0.01830800      -0.00706300
C       -4.41828000      11.47903000      13.87502000       0.00690400       0.02251500      -0.00797200
C        1.54643000       1.91317000      13.87741000       0.14764000      -0.12742500       0.03290100
C        0.66278000       4.20900000      13.87798000       0.03538400       0.19453400       0.03535400
C       -0.22100000       6.50483000      13.87492000       0.02031100      -0.00632300      -0.01268300
C       -1.10464000       8.80066000      13.87454000      -0.00860400      -0.00931000      -0.00770500
C       -1.98821000      11.09637000      13.87485000      -0.01496200       0.00680600      -0.00757200
C        3.97649000       1.53051000      13.87549000      -0.01376200      -0.01234100      -0.00834900
C        3.09285000       3.82634000      13.87337000       0.18578400       0.07545400      -0.00200500
C        2.20907000       6.12217000      13.87526000      -0.01856100      -0.00913500      -0.01303700
C        1.32543000       8.41800000      13.87453000      -0.00728200      -0.01435100      -0.01002700
C        0.44179000      10.71383000      13.87482000      -0.00147400       0.00125000      -0.00718100
C        6.40656000       1.14786000      13.87470000       0.01056300       0.02332200      -0.00341900
C        5.52292000       3.44369000      13.87457000       0.00521200       0.02071500      -0.00383600
C        4.63928000       5.73952000      13.87482000       0.00743900      -0.01478500      -0.00261200
C        3.75550000       8.03535000      13.87487000       0.01569800      -0.00235400      -0.00649000
C        2.87186000      10.33118000      13.87512000       0.00121400      -0.00976700      -0.00757800
C        8.83656000       0.76532000      13.87471000       0.00266100       0.01163400      -0.00843700
C        7.95299000       3.06103000      13.87454000      -0.00922900       0.02427300      -0.00597500
C        7.06935000       5.35686000      13.87453000      -0.00048600       0.00069700      -0.00672000
C        6.18557000       7.65269000      13.87510000      -0.00951100      -0.01534900      -0.00314000
C        5.30192000       9.94852000      13.87467000       0.01259600      -0.01202800       0.00083100
C       11.26663000       0.38266000      13.87494000       0.01159900       0.02903400      -0.01027100
C       10.38299000       2.67849000      13.87549000       0.01987200      -0.00384400      -0.00832400
C        9.49941000       4.97420000      13.87482000      -0.01069900       0.02416200      -0.00262000
C        8.61564000       7.27003000      13.87471000      -0.00800000      -0.00235200      -0.00832100
C        7.73199000       9.56586000      13.87459000      -0.01646600      -0.00260100      -0.00151800
C       -4.86014000       8.67303000      13.87445000       0.00723800       0.02594900      -0.00410800
C       -5.74378000      10.96886000      13.87547000      -0.02653300       0.02119500      -0.01188800
C        0.22093000       1.40300000      13.87794000      -0.02909300      -0.20131100       0.03308500
C       -0.66271000       3.69883000      13.87755000      -0.15578200       0.10971800       0.04301100
C       -1.54649000       5.99466000      13.87475000      -0.01742500      -0.02932800      -0.00980000
C       -2.43014000       8.29049000      13.87457000       0.01776300       0.01492700      -0.00079000
C       -3.31371000      10.58620000      13.87473000       0.01196100       0.02129300      -0.00053100
C        2.65100000       1.02034000      13.87353000       0.13746700      -0.11629800       0.00110000
C        1.76735000       3.31617000      13.87730000       0.16434200       0.04945800       0.04025700
C        0.88357000       5.61200000      13.87321000       0.02589700       0.18542000       0.00571200
C       -0.00007000       7.90783000      13.87480000       0.01072500       0.00585600      -0.00611400
C       -0.88371000      10.20366000      13.87441000       0.01238000       0.01035500      -0.00544900
C        5.08106000       0.63768000      13.87484000      -0.00917000      -0.00064500       0.00179300
C        4.19742000       2.93351000      13.87519000      -0.02474100       0.01416400      -0.00824000
C        3.31378000       5.22934000      13.87511000      -0.00542600      -0.02247000      -0.00836400
C        2.43000000       7.52517000      13.87441000      -0.00533300      -0.00040000      -0.00101300
C        1.54636000       9.82101000      13.87445000       0.00214000       0.00116400      -0.00129300
C        7.51106000       0.25514000      13.87473000      -0.00552500      -0.00434200      -0.00398600
C        6.62749000       2.55086000      13.87463000       0.00967900      -0.00504000      -0.00914200
C        5.74385000       4.84669000      13.87461000      -0.00255100      -0.01855300      -0.01000200
C        4.86007000       7.14252000      13.87482000       0.00347600       0.01375500       0.00026500
C        3.97643000       9.43835000      13.87470000      -0.00433100       0.00310900      -0.00266800
C        3.09278000      11.73418000      13.87448000       0.01220000       0.00307000      -0.00193100
C        9.05749000       2.16832000      13.87485000       0.00384400      -0.02571000       0.00059600
C        8.17392000       4.46403000      13.87462000      -0.01793600      -0.01682300      -0.00845500
C        7.29014000       6.75986000      13.87483000       0.00158200       0.00300800      -0.00219200
C        6.40649000       9.05569000      13.87486000       0.00662400       0.02050800      -0.00547100
C        5.52285000      11.35152000      13.87546000       0.03057600       0.01315700      -0.01181600
C       11.48756000       1.78566000      13.87353000      -0.17537400      -0.08188800       0.00103700
C       10.60392000       4.08149000      13.87519000       0.02278500      -0.00841800      -0.00560900
C        9.72014000       6.37732000      13.87473000       0.01489700      -0.01358600      -0.00318800
C        0.00000000       0.00000000      10.12707000      -0.02828700      -0.18817900      -0.00962500
C       -0.88364000       2.29583000      10.12251000      -0.17469900      -0.06434800      -0.03433300
C       -1.76729000       4.59166000      10.12648000      -0.14854600       0.12028600       0.00339500
C       -2.65106000       6.88749000      10.12509000      -0.01755500      -0.01089300       0.00492700
C       -3.53464000       9.18320000      10.12487000      -0.01116200      -0.01830800       0.00706300
C       -4.41828000      11.47903000      10.12498000       0.00690400       0.02251500       0.00797200
C        1.54643000       1.91317000      10.12259000       0.14764000      -0.12742500      -0.03290100
C        0.66278000       4.20900000      10.12202000       0.03538400       0.19453400      -0.03535400
C       -0.22100000       6.50483000      10.12508000       0.02031100      -0.00632300       0.01268300
C       -1.10464000       8.80066000      10.12546000      -0.00860400      -0.00931000       0.00770500
C       -1.98821000      11.09637000      10.12515000      -0.01496200       0.00680600       0.00757200
C        3.97649000       1.53051000      10.12451000      -0.01376200      -0.01234100       0.00834900
C        3.09285000       3.82634000      10.12663000       0.18578400       0.07545400       0.00200500
C        2.20907000       6.12217000      10.12474000      -0.01856100      -0.00913500       0.01303700
C        1.32543000       8.41800000      10.12547000      -0.00728200      -0.01435100       0.01002700
C        0.44179000      10.71383000      10.12518000      -0.00147400       0.00125000       0.00718100
C        6.40656000       1.14786000      10.12530000       0.01056300       0.02332200       0.00341900
C        5.52292000       3.44369000      10.12543000       0.00521200       0.02071500       0.00383600
C        4.63928000       5.73952000      10.12518000       0.00743900      -0.01478500       0.00261200
C        3.75550000       8.03535000      10.12513000       0.01569800      -0.00235400       0.00649000
C        2.87186000      10.33118000      10.12488000       0.00121400      -0.00976700       0.00757800
C        8.83656000       0.76532000      10.12529000       0.00266100       0.01163400       0.00843700
C        7.95299000       3.06103000      10.12546000      -0.00922900       0.02427300       0.00597500
C        7.06935000       5.35686000      10.12547000      -0.00048600       0.00069700       0.00672000
C        6.18557000       7.65269000      10.12490000      -0.00951100      -0.01534900       0.00314000
C        5.30192000       9.94852000      10.12533000       0.01259600      -0.01202800      -0.00083100
C       11.26663000       0.38266000      10.12506000       0.01159900       0.02903400       0.01027100
C       10.38299000       2.67849000      10.12451000       0.01987200      -0.00384400       0.00832400
C        9.49941000       4.97420000      10.12518000      -0.01069900       0.02416200       0.00262000
C        8.61564000       7.27003000      10.12529000      -0.00800000      -0.00235200       0.00832100
C        7.73199000       9.56586000      10.12541000      -0.01646600      -0.00260100       0.00151800
C       -4.86014000       8.67303000      10.12555000       0.00723800       0.02594900       0.00410800
C       -5.74378000      10.96886000      10.12453000      -0.02653300       0.02119500       0.01188800
C        0.22093000       1.40300000      10.12206000      -0.02909300      -0.20131100      -0.03308500
C       -0.66271000       3.69883000      10.12245000      -0.15578200       0.10971800      -0.04301100
C       -1.54649000       5.99466000      10.12525000      -0.01742500      -0.02932800       0.00980000
C       -2.43014000       8.29049000      10.12543000       0.01776300       0.01492700       0.00079000
C       -3.31371000      10.58620000      10.12527000       0.01196100       0.02129300       0.00053100
C        2.65100000       1.02034000      10.12647000       0.13746700      -0.11629800      -0.00110000
C        1.76735000       3.31617000      10.12270000       0.16434200       0.04945800      -0.04025700
C        0.88357000       5.61200000      10.12679000       0.02589700       0.18542000      -0.00571200
C       -0.00007000       7.90783000      10.12520000       0.01072500       0.00585600       0.00611400
C       -0.88371000      10.20366000      10.12559000       0.01238000       0.01035500       0.00544900
C        5.08106000       0.63768000      10.12516000      -0.00917000      -0.00064500      -0.00179300
C        4.19742000       2.93351000      10.12481000      -0.02474100       0.01416400       0.00824000
C        3.31378000       5.22934000      10.12489000      -0.00542600      -0.02247000       0.00836400
C        2.43000000       7.52517000      10.12559000      -0.00533300      -0.00040000       0.00101300
C        1.54636000       9.82101000      10.12555000       0.00214000       0.00116400       0.00129300
C        7.51106000       0.25514000      10.12527000      -0.00552500      -0.00434200       0.00398600
C        6.62749000       2.55086000      10.12537000       0.00967900      -0.00504000       0.00914200
C        5.74385000       4.84669000      10.12539000      -0.00255100      -0.01855300       0.01000200
C        4.86007000       7.14252000      10.12518000       0.00347600       0.01375500      -0.00026500
C        3.97643000       9.43835000      10.12530000      -0.00433100       0.00310900       0.00266800
C        3.09278000      11.73418000      10.12552000       0.01220000       0.00307000       0.00193100
C        9.05749000       2.16832000      10.12515000       0.00384400      -0.02571000      -0.00059600
C        8.17392000       4.46403000      10.12538000      -0.01793600      -0.01682300       0.00845500
C        7.29014000       6.75986000      10.12517000       0.00158200       0.00300800       0.00219200
C        6.40649000       9.05569000      10.12514000       0.00662400       0.02050800       0.00547100
C        5.52285000      11.35152000      10.12454000       0.03057600       0.01315700       0.01181600
C       11.48756000       1.78566000      10.12647000      -0.17537400      -0.08188800      -0.00103700
C       10.60392000       4.08149000      10.12481000       0.02278500      -0.00841800       0.00560900
C        9.72014000       6.37732000      10.12527000       0.01489700      -0.01358600       0.00318800
Li       0.44187000       2.80575000      12.00000000       0.00010400      -0.00455400       0.00000000
125
Lattice="13.696700096 0.0 0.0 -6.848350048 11.861690231 0.0 0.0 0.0 24.0" Properties=species:S:1:pos:R:3:forces:R:3 stress="-0.0039682017060175545 -1.8724527377649773e-07 -0.0 -1.8724527377649773e-07 -0.003958040529160617 -0.0 -0.0 -0.0 0.004730246279724019" free_energy=-1153.80163357 energy=-1153.79613713 pbc="T T T"
C        0.00000000       0.00000000      13.87135000      -0.02825400      -0.18798700       0.04272400
C       -0.88364000       2.29583000      13.87939000      -0.17089500      -0.05981700       0.02481500
C       -1.76729000       4.59166000      13.87239000      -0.14677500       0.11822100       0.02450000
C       -2.65106000       6.88749000      13.87485000      -0.01757600      -0.01083800      -0.00730400
C       -3.53464000       9.18320000      13.87523000      -0.01118600      -0.01830400      -0.01292200
C       -4.41828000      11.47903000      13.87503000       0.00686600       0.02239200      -0.01432200
C        1.54643000       1.91317000      13.87926000       0.14913700      -0.12554200       0.02414600
C        0.66278000       4.20900000      13.88025000       0.03925200       0.19366600       0.01854300
C       -0.22100000       6.50483000      13.87485000       0.02015300      -0.00624800      -0.02250400
C       -1.10464000       8.80066000      13.87418000      -0.01022700      -0.01437400      -0.00638600
C       -1.98821000      11.09637000      13.87474000      -0.01497300       0.00679200      -0.01104700
C        3.97649000       1.53051000      13.87587000      -0.01363100      -0.01367400      -0.02172500
C        3.09285000       3.82634000      13.87213000       0.18713700       0.07441900       0.02573400
C        2.20907000       6.12217000      13.87545000      -0.02092900      -0.00303500      -0.02990800
C        1.32543000       8.41800000      13.87416000      -0.00727500      -0.01432100      -0.01167200
C        0.44179000      10.71383000      13.87469000      -0.00146000       0.00124200      -0.01097500
C        6.40656000       1.14786000      13.87447000       0.01055100       0.02336200      -0.00286100
C        5.52292000       3.44369000      13.87423000       0.00520700       0.02064200      -0.00135800
C        4.63928000       5.73952000      13.87469000       0.00749200      -0.01475800      -0.00177500
C        3.75550000       8.03535000      13.87477000       0.01568300      -0.00235100      -0.00940200
C        2.87186000      10.33118000      13.87522000       0.00122200      -0.00975100      -0.01373600
C        8.83656000       0.76532000      13.87448000       0.00265200       0.01159100      -0.01026700
C        7.95299000       3.06103000      13.87419000      -0.00843900       0.02661600      -0.00414400
C        7.06935000       5.35686000      13.87416000      -0.00051800       0.00074800      -0.00631200
C        6.18557000       7.65269000      13.87518000      -0.00950600      -0.01535400      -0.00606600
C        5.30192000       9.94852000      13.87442000       0.01255000      -0.01202000       0.00522600