125
Lattice="13.696700096 0.0 0.0 -6.848350048 11.861690231 0.0 0.0 0.0 24.0" Properties=species:S:1:pos:R:3:forces:R:3 stress="-0.003877212985980428 4.294158278607682e-06 1.1484376791625197e-06 4.294158278607682e-06 -0.003872937552229198 -5.430112939518434e-07 1.1484376791625197e-06 -5.430112939518434e-07 0.0008572587954218137" free_energy=-1152.9973964 energy=-1152.99169295 pbc="T T T"
C        0.00000000       0.00000000      13.67500000      -0.05042100      -0.32251600       0.17866900
C       -0.88364000       2.29583000      13.67500000      -0.25251500       0.20942800       0.18683900
C       -1.76729000       4.59166000      13.67500000      -0.02475200      -0.01539200       0.02305900
C       -2.65106000       6.88749000      13.67500000      -0.01413400      -0.00361000       0.02312800
C       -3.53464000       9.18320000      13.67500000      -0.02273100      -0.01835800       0.02837800
C       -4.41828000      11.47903000      13.67500000       0.05895000      -0.04910000       0.03328900
C        1.54643000       1.91317000      13.67500000       0.30568000       0.11041100       0.18541000
C        0.66278000       4.20900000      13.67500000       0.01629200       0.07766600       0.04349900
C       -0.22100000       6.50483000      13.67500000      -0.02366700       0.00531000       0.01585100
C       -1.10464000       8.80066000      13.67500000       0.00809600      -0.01623900       0.01534000
C       -1.98821000      11.09637000      13.67500000       0.00383600       0.02497900       0.02307200
C        3.97649000       1.53051000      13.67500000       0.01092900       0.02634900       0.02827900
C        3.09285000       3.82634000      13.67500000       0.02710100      -0.01506500       0.02024100
C        2.20907000       6.12217000      13.67500000       0.02755400      -0.01028700       0.02330900
C        1.32543000       8.41800000      13.67500000       0.00130600       0.00022400       0.01534600
C        0.44179000      10.71383000      13.67500000      -0.00893900       0.00755400       0.02152200
C        6.40656000       1.14786000      13.67500000       0.00935200       0.02028800       0.01933600
C        5.52292000       3.44369000      13.67500000       0.00682500       0.00902500       0.01228400
C        4.63928000       5.73952000      13.67500000       0.00676500      -0.00986200       0.02108100
C        3.75550000       8.03535000      13.67500000       0.00770500      -0.01096000       0.02278800
C        2.87186000      10.33118000      13.67500000       0.00933500      -0.01510800       0.02850300
C        8.83656000       0.76532000      13.67500000      -0.00868500       0.02966300       0.01992500
C        7.95299000       3.06103000      13.67500000      -0.01006900       0.01502900       0.01522500
C        7.06935000       5.35686000      13.67500000      -0.00178300      -0.00398600       0.01617500
C        6.18557000       7.65269000      13.67500000      -0.00462100      -0.01329500       0.02477000
C        5.30192000       9.94852000      13.67500000       0.02327500      -0.01393200       0.01825900
C       11.26663000       0.38266000      13.67500000      -0.06133600      -0.02154900       0.03172500
C       10.38299000       2.67849000      13.67500000       0.00705300       0.03956000       0.02847900
C        9.49941000       4.97420000      13.67500000      -0.01928400       0.00971100       0.01813000
C        8.61564000       7.27003000      13.67500000      -0.00785200      -0.01364500       0.01947000
C        7.73199000       9.56586000      13.67500000      -0.03408300      -0.00204700       0.01692500
C       -4.86014000       8.67303000      13.67500000       0.02335600       0.03321700       0.02994000
C       -5.74378000      10.96886000      13.67500000       0.09725600      -0.10176600       0.04469200
C        0.22093000       1.40300000      13.67500000      -0.00037600      -0.01037400       3.82284800
C       -0.66271000       3.69883000      13.67500000      -0.00150900       0.13836300       0.03716500
C       -1.54649000       5.99466000      13.67500000       0.01484000       0.00719400       0.02812800
C       -2.43014000       8.29049000      13.67500000       0.01212200       0.00010500       0.02909600
C       -3.31371000      10.58620000      13.67500000      -0.00759300       0.01498900       0.02718900
C        2.65100000       1.02034000      13.67500000       0.11443000      -0.07678200       0.04080500
C        1.76735000       3.31617000      13.67500000       0.02515600       0.12551700       0.03194600
C        0.88357000       5.61200000      13.67500000      -0.00678900      -0.00278600       0.02414000
C       -0.00007000       7.90783000      13.67500000      -0.01115900       0.00417500       0.03336900
C       -0.88371000      10.20366000      13.67500000       0.01547400       0.01786700       0.02641500
C        5.08106000       0.63768000      13.67500000      -0.01275400      -0.02203500       0.03728900
C        4.19742000       2.93351000      13.67500000      -0.00934500      -0.00299200       0.03916200
C        3.31378000       5.22934000      13.67500000      -0.02763800       0.02504400       0.03585800
C        2.43000000       7.52517000      13.67500000       0.01084500      -0.00499900       0.02537900
C        1.54636000       9.82101000      13.67500000       0.00490400      -0.01877600       0.02728200
C        7.51106000       0.25514000      13.67500000      -0.00405000      -0.00633100       0.03296200
C        6.62749000       2.55086000      13.67500000       0.00685900      -0.00201700       0.03054000
C        5.74385000       4.84669000      13.67500000       0.00007500      -0.01034200       0.03098500
C        4.86007000       7.14252000      13.67500000       0.00177900       0.00829300       0.03502000
C        3.97643000       9.43835000      13.67500000      -0.01466200       0.01680400       0.03489900
C        3.09278000      11.73418000      13.67500000       0.02669300      -0.00346700       0.02207600
C        9.05749000       2.16832000      13.67500000       0.00027200      -0.04246200       0.03745200
C        8.17392000       4.46403000      13.67500000      -0.01062300      -0.00919100       0.03096700
C        7.29014000       6.75986000      13.67500000       0.00702500       0.01064300       0.03546400
C        6.40649000       9.05569000      13.67500000       0.00964700       0.01263600       0.04040700
C        5.52285000      11.35152000      13.67500000      -0.12398600      -0.06558100       0.04482100
C       11.48756000       1.78566000      13.67500000      -0.14154700      -0.05109900       0.04071300
C       10.60392000       4.08149000      13.67500000       0.00167300      -0.01988400       0.03915000
C        9.72014000       6.37732000      13.67500000       0.01510300      -0.00056700       0.03342900
C        0.00000000       0.00000000      10.32500000      -0.04343800      -0.28611700      -0.20753100
C       -0.88364000       2.29583000      10.32500000      -0.21934000       0.17600400      -0.21412400
C       -1.76729000       4.59166000      10.32500000      -0.00026000      -0.02295600      -0.02534200
C       -2.65106000       6.88749000      10.32500000       0.02504000       0.00200000      -0.02097100
C       -3.53464000       9.18320000      10.32500000       0.02386500      -0.00705200      -0.02870200
C       -4.41828000      11.47903000      10.32500000       0.15523300      -0.13544000       0.01609700
C        1.54643000       1.91317000      10.32500000       0.27266000       0.10512900      -0.21585800
C        0.66278000       4.20900000      10.32500000       0.04185600       0.21321100       0.00454600
C       -0.22100000       6.50483000      10.32500000       0.01468200       0.01353400      -0.01635200
C       -1.10464000       8.80066000      10.32500000       0.01334400      -0.00896000      -0.01501200
C       -1.98821000      11.09637000      10.32500000       0.00919100      -0.02002500      -0.02057300
C        3.97649000       1.53051000      10.32500000      -0.01623200       0.01355200      -0.03378900
C        3.09285000       3.82634000      10.32500000      -0.00750000      -0.03166900      -0.02866300
C        2.20907000       6.12217000      10.32500000      -0.01337200       0.02560500      -0.02207000
C        1.32543000       8.41800000      10.32500000      -0.00551900       0.00580100      -0.01501900
C        0.44179000      10.71383000      10.32500000      -0.00915000      -0.01130500      -0.01883300
C        6.40656000       1.14786000      10.32500000       0.00451200      -0.01931200      -0.02134100
C        5.52292000       3.44369000      10.32500000      -0.00214300      -0.00319500      -0.01330900
C        4.63928000       5.73952000      10.32500000      -0.01695400       0.01188700      -0.02217000
C        3.75550000       8.03535000      10.32500000      -0.02597600      -0.00064700      -0.01936100
C        2.87186000      10.33118000      10.32500000      -0.02694600       0.01039000      -0.02883100
C        8.83656000       0.76532000      10.32500000      -0.00332600      -0.02405400      -0.02348100
C        7.95299000       3.06103000      10.32500000      -0.01477100      -0.01246200      -0.01459300
C        7.06935000       5.35686000      10.32500000      -0.00023700      -0.01102500      -0.01502200
C        6.18557000       7.65269000      10.32500000      -0.00552600       0.00768600      -0.02595800
C        5.30192000       9.94852000      10.32500000       0.02591300       0.01959500      -0.02202500
C       11.26663000       0.38266000      10.32500000      -0.19688000      -0.07228100       0.01455100
C       10.38299000       2.67849000      10.32500000       0.03159400       0.01160200      -0.03408400
C        9.49941000       4.97420000      10.32500000       0.01079300      -0.00406200      -0.02087500
C        8.61564000       7.27003000      10.32500000       0.01671100       0.00306800      -0.02182700
C        7.73199000       9.56586000      10.32500000      -0.02372000       0.01882500      -0.02387100
C       -2.87179000       5.48437000      10.32500000      -0.01949400      -0.00299800      -0.03395400
C       -3.75557000       7.78020000      10.32500000      -0.01017500       0.00738800      -0.03488600
C       -4.63921000      10.07603000      10.32500000      -0.00088900       0.05317400      -0.04167800
C        1.32550000       0.51017000      10.32500000       0.20789500      -0.18054100      -0.22150200
C        0.44186000       2.80600000      10.32500000       0.03640500       0.26674000      -0.21773300
C       -0.44179000       5.10183000      10.32500000       0.02419300      -0.03330100      -0.04060600
C       -1.32557000       7.39766000      10.32500000      -0.00319500      -0.00356300      -0.03012500
C       -2.20914000       9.69337000      10.32500000      -0.02019300       0.01417300      -0.03299800
C        3.75557000       0.12751000      10.32500000      -0.06071600      -0.00584100      -0.03309900
C        2.87192000       2.42334000      10.32500000       0.16499300       0.07187200       0.00093200
C        1.98828000       4.71917000      10.32500000      -0.05140100      -0.02185800      -0.04042500
C        1.10450000       7.01500000      10.32500000      -0.00732000      -0.00411900      -0.02851800
C        0.22086000       9.31083000      10.32500000      -0.00484500      -0.01201500      -0.03009400
C       -0.66271000      11.60655000      10.32500000       0.00416700       0.01850200      -0.03303000
C        5.30199000       2.04069000      10.32500000      -0.00641700       0.02639400      -0.02805500
C        4.41835000       4.33652000      10.32500000      -0.00486500       0.00283100      -0.02625600
C        3.53457000       6.63235000      10.32500000       0.01378300      -0.00766600      -0.03331100
C        2.65093000       8.92818000      10.32500000       0.01778500      -0.01009800      -0.03462000
C        1.76729000      11.22401000      10.32500000       0.02353100      -0.00191900      -0.03298800
C        7.73206000       1.65803000      10.32500000      -0.00824200       0.00379200      -0.02653900
C        6.84842000       3.95386000      10.32500000       0.00508600       0.00269500      -0.03275700
C        5.96478000       6.24969000      10.32500000       0.00357800      -0.00575700      -0.02872300
C        5.08100000       8.54552000      10.32500000       0.03172900       0.01174000      -0.02804200
C        4.19735000      10.84135000      10.32500000       0.02384400       0.03454900      -0.04184700
C       10.16206000       1.27549000      10.32500000       0.04066500      -0.03340400      -0.03803900
C        9.27849000       3.57120000      10.32500000      -0.00379200       0.01001100      -0.02997400
C        8.39484000       5.86703000      10.32500000       0.00975500       0.00977600      -0.02499400
C        7.51106000       8.16286000      10.32500000      -0.00387900       0.00735400      -0.03303600
C        6.62742000      10.45869000      10.32500000      -0.02732300      -0.17873600      -0.00671700
C       12.59213000       0.89283000      10.32500000      -0.25193200      -0.10292400      -0.22158800
C       11.70849000       3.18866000      10.32500000      -0.13942300       0.09717500       0.00604300
Li       0.22093000       1.40300000      12.00000000       0.00192800       0.00560700      -3.37434000
125
Lattice="13.696700096 0.0 0.0 -6.848350048 11.861690231 0.0 0.0 0.0 24.0" Properties=species:S:1:pos:R:3:forces:R:3 stress="-0.003915797995396639 6.853177020219818e-06 2.970958343920431e-06 6.853177020219818e-06 -0.0039035084639277746 -2.2469432853179729e-07 2.970958343920431e-06 -2.2469432853179729e-07 0.002105972560200774" free_energy=-1153.33257067 energy=-1153.3267618 pbc="T T T"
C        0.00000000       0.00000000      13.68362000      -0.01661800      -0.10664800       1.03533400
C       -0.88364000       2.29583000      13.68401000      -0.07638100       0.08156200       1.02410700
C       -1.76729000       4.59166000      13.67611000      -0.02096600      -0.00015900      -0.06085500
C       -2.65106000       6.88749000      13.67612000      -0.00844500      -0.00434200       0.02622500
C       -3.53464000       9.18320000      13.67637000      -0.01988300      -0.01695300       0.02592900
C       -4.41828000      11.47903000      13.67661000       0.05078200      -0.04570600       0.09292600
C        1.54643000       1.91317000      13.68394000       0.10836500       0.03637500       1.02224600
C        0.66278000       4.20900000      13.67710000       0.01603700       0.06813000       0.09703700
C       -0.22100000       6.50483000      13.67576000      -0.01940100       0.00654700       0.02538400
C       -1.10464000       8.80066000      13.67574000       0.00737000      -0.01397300       0.02709600
C       -1.98821000      11.09637000      13.67611000       0.00979300       0.01977600       0.02592100
C        3.97649000       1.53051000      13.67636000       0.01310700       0.01373700      -0.05593100
C        3.09285000       3.82634000      13.67598000       0.02594600      -0.00136600      -0.05978600
C        2.20907000       6.12217000      13.67612000       0.02219600      -0.00509500       0.01955200
C        1.32543000       8.41800000      13.67574000      -0.00040100      -0.00195900       0.02632800
C        0.44179000      10.71383000      13.67604000      -0.01037900       0.00339800       0.02138700
C        6.40656000       1.14786000      13.67593000       0.01049000       0.01976900       0.03112100
C        5.52292000       3.44369000      13.67559000       0.00652300       0.00755100       0.04258500
C        4.63928000       5.73952000      13.67602000       0.00616200      -0.00997800       0.02900700
C        3.75550000       8.03535000      13.67610000       0.00266700      -0.01506500       0.03240800
C        2.87186000      10.33118000      13.67638000       0.00570100      -0.01097300       0.02516800
C        8.83656000       0.76532000      13.67596000      -0.01249300       0.02548000       0.02671800
C        7.95299000       3.06103000      13.67573000      -0.00952800       0.01374400       0.03345000
C        7.06935000       5.35686000      13.67578000      -0.00169800      -0.00423400       0.02494300
C        6.18557000       7.65269000      13.67619000      -0.00628000      -0.00949900       0.04563400
C        5.30192000       9.94852000      13.67588000       0.00937200      -0.01094300      -0.06254700
C       11.26663000       0.38266000      13.67653000      -0.05117400      -0.01932500       0.09140200
C       10.38299000       2.67849000      13.67637000       0.00285400       0.02994800      -0.05582500
C        9.49941000       4.97420000      13.67587000      -0.01815500       0.00935100       0.03811000
C        8.61564000       7.27003000      13.67594000      -0.00549800      -0.01656900       0.03262800
C        7.73199000       9.56586000      13.67582000      -0.02354900      -0.00349100      -0.06431500
C       -4.86014000       8.67303000      13.67644000       0.01840000       0.02971600       0.01771200
C       -5.74378000      10.96886000      13.67716000       0.08791500      -0.10639500       0.00113500
C        0.22093000       1.40300000      13.85942000      -0.00006500      -0.00755900      -1.59331800
C       -0.66271000       3.69883000      13.67679000      -0.00971100       0.13506900       0.01058400
C       -1.54649000       5.99466000      13.67636000       0.00905500       0.00596400       0.01561000
C       -2.43014000       8.29049000      13.67640000       0.01229200      -0.00078800       0.02202000
C       -3.31371000      10.58620000      13.67631000      -0.00597400       0.01300300       0.03462100
C        2.65100000       1.02034000      13.67697000       0.11601100      -0.06879600       0.00609700
C        1.76735000       3.31617000      13.67654000       0.03237000       0.11997000       0.00732900
C        0.88357000       5.61200000      13.67616000      -0.00487500       0.00038700       0.02922100
C       -0.00007000       7.90783000      13.67661000      -0.00858100       0.00294900       0.00033100
C       -0.88371000      10.20366000      13.67627000       0.01188800       0.01823300       0.02085400
C        5.08106000       0.63768000      13.67680000      -0.01053600      -0.01473700       0.01898600
C        4.19742000       2.93351000      13.67689000      -0.00838200      -0.00485000       0.04010100
C        3.31378000       5.22934000      13.67673000      -0.02472200       0.02222200       0.01485900
C        2.43000000       7.52517000      13.67622000       0.01024000      -0.00582800       0.02194800
C        1.54636000       9.82101000      13.67632000       0.00115800      -0.01427900       0.02270700
C        7.51106000       0.25514000      13.67659000       0.00022900      -0.00816700       0.02217800
C        6.62749000       2.55086000      13.67647000       0.00607800      -0.00065800       0.01899800
C        5.74385000       4.84669000      13.67649000       0.00085800      -0.01000800       0.01990600
C        4.86007000       7.14252000      13.67669000       0.00510700       0.00693200       0.02436700
C        3.97643000       9.43835000      13.67668000      -0.01090500       0.01226100       0.02118400
C        3.09278000      11.73418000      13.67607000       0.02434100      -0.00418100       0.03121800
C        9.05749000       2.16832000      13.67681000       0.00117000      -0.03531200       0.01868600
C        8.17392000       4.46403000      13.67649000      -0.01155100      -0.00891400       0.01990400
C        7.29014000       6.75986000      13.67671000       0.00729700       0.00955100       0.02549100
C        6.40649000       9.05569000      13.67695000       0.00926300       0.01246500       0.03791600
C        5.52285000      11.35152000      13.67716000      -0.11712400      -0.07027200       0.00106800
C       11.48756000       1.78566000      13.67696000      -0.14040300      -0.04237800       0.00609800
C       10.60392000       4.08149000      13.67689000      -0.00032500      -0.02044900       0.04107900
C        9.72014000       6.37732000      13.67661000       0.01553200      -0.00014100       0.01962500
C        0.00000000       0.00000000      10.31499000      -0.06467900      -0.41994700      -0.34417600
C       -0.88364000       2.29583000      10.31467000      -0.32570800       0.26794500      -0.33283000
C       -1.76729000       4.59166000      10.32378000      -0.00121900      -0.02195300      -0.01899500
C       -2.65106000       6.88749000      10.32399000       0.02729600       0.00512100      -0.02469300
C       -3.53464000       9.18320000      10.32362000       0.02331800      -0.00336100      -0.03212300
C       -4.41828000      11.47903000      10.32578000       0.17329300      -0.15091800      -0.05040800
C        1.54643000       1.91317000      10.31459000       0.41028200       0.15312100      -0.33439400
C        0.66278000       4.20900000      10.32522000       0.04509000       0.23549500      -0.05237500
C       -0.22100000       6.50483000      10.32421000       0.01711100       0.01356500      -0.02908200
C       -1.10464000       8.80066000      10.32428000       0.01429300      -0.00955500      -0.02773900
C       -1.98821000      11.09637000      10.32401000       0.01226400      -0.02283200      -0.02832000
C        3.97649000       1.53051000      10.32337000      -0.01855300       0.01284700      -0.01763900
C        3.09285000       3.82634000      10.32362000      -0.00500200      -0.02829400      -0.01798800
C        2.20907000       6.12217000      10.32394000      -0.01769000       0.02598500      -0.02460000
C        1.32543000       8.41800000      10.32428000      -0.00558000       0.00651900      -0.02775600
C        0.44179000      10.71383000      10.32409000      -0.01208400      -0.01340300      -0.02460600
C        6.40656000       1.14786000      10.32397000       0.00989200      -0.01905000      -0.02166700
C        5.52292000       3.44369000      10.32436000      -0.00200600      -0.00436300      -0.02500600
C        4.63928000       5.73952000      10.32393000      -0.01777600       0.01014300      -0.02090900
C        3.75550000       8.03535000      10.32407000      -0.03176800      -0.00384900      -0.02832700
C        2.87186000      10.33118000      10.32361000      -0.02598000       0.01435500      -0.03223800
C        8.83656000       0.76532000      10.32387000      -0.00890100      -0.02706500      -0.02760300
C        7.95299000       3.06103000      10.32430000      -0.01530600      -0.01543300      -0.02707300
C        7.06935000       5.35686000      10.32428000      -0.00016600      -0.01127400      -0.02611200
C        6.18557000       7.65269000      10.32375000      -0.00773400       0.00828000      -0.02591900
C        5.30192000       9.94852000      10.32394000       0.02825100       0.02213700      -0.01442400
C       11.26663000       0.38266000      10.32570000      -0.21896000      -0.08053700      -0.05099500
C       10.38299000       2.67849000      10.32336000       0.03519300       0.01203300      -0.01826600
C        9.49941000       4.97420000      10.32399000       0.00807300      -0.00312500      -0.01950200
C        8.61564000       7.27003000      10.32395000       0.02228800      -0.00243900      -0.02707400
C        7.73199000       9.56586000      10.32385000      -0.02775600       0.01974100      -0.01621100
C       -2.87179000       5.48437000      10.32336000      -0.02218100      -0.00883800      -0.02141300
C       -3.75557000       7.78020000      10.32332000      -0.01008200       0.00559000      -0.02691100
C       -4.63921000      10.07603000      10.32299000      -0.00237800       0.05744300      -0.01542500
C        1.32550000       0.51017000      10.31431000       0.30591900      -0.25557900      -0.32343500
C        0.44186000       2.80600000      10.31450000       0.04775000       0.39547600      -0.31858400
C       -0.44179000       5.10183000      10.32304000       0.02842800      -0.03855100      -0.01760400
C       -1.32557000       7.39766000      10.32355000      -0.00553500      -0.00449700      -0.02240000
C       -2.20914000       9.69337000      10.32341000      -0.02174200       0.01479300      -0.02641000
C        3.75557000       0.12751000      10.32340000      -0.06592100      -0.00575700      -0.01670600
C        2.87192000       2.42334000      10.32504000       0.18158200       0.07804700      -0.04763200
C        1.98828000       4.71917000      10.32305000      -0.05626400      -0.02403800      -0.01853800
C        1.10450000       7.01500000      10.32362000      -0.00705600      -0.00595800      -0.02087900
C        0.22086000       9.31083000      10.32355000      -0.00487700      -0.01222600      -0.02106400
C       -0.66271000      11.60655000      10.32341000       0.00133100       0.02220800      -0.02348500
C        5.30199000       2.04069000      10.32365000      -0.00535100       0.02735100      -0.02313400
C        4.41835000       4.33652000      10.32373000      -0.00551600       0.00056500      -0.02226400
C        3.53457000       6.63235000      10.32339000       0.01971900      -0.00591900      -0.02418300
C        2.65093000       8.92818000      10.32333000       0.01973200      -0.01211900      -0.02793100
C        1.76729000      11.22401000      10.32341000       0.02294800      -0.00235700      -0.02659700
C        7.73206000       1.65803000      10.32372000      -0.00797500       0.00411800      -0.02203600
C        6.84842000       3.95386000      10.32342000       0.00480600       0.00290400       0.00040500
C        5.96478000       6.24969000      10.32361000       0.00289800      -0.00694100      -0.02113900
C        5.08100000       8.54552000      10.32365000       0.03553600       0.01204300      -0.02424600
C        4.19735000      10.84135000      10.32298000       0.02689400       0.03915300      -0.01546700
C       10.16206000       1.27549000      10.32316000       0.04515900      -0.03473900      -0.02005000
C        9.27849000       3.57120000      10.32355000      -0.00194700       0.01191000      -0.02236800
C        8.39484000       5.86703000      10.32379000       0.00964400       0.00912100      -0.02098000
C        7.51106000       8.16286000      10.32341000      -0.00545700       0.00880600      -0.02768500
C        6.62742000      10.45869000      10.32468000      -0.03008700      -0.19654600      -0.04282400
C       12.59213000       0.89283000      10.31431000      -0.37766100      -0.15687200      -0.32317700
C       11.70849000       3.18866000      10.32529000      -0.15415500       0.10700500      -0.04591300
Li       0.22102000       1.40327000      11.83721000      -0.00050400       0.00042200       0.83722000
125
Lattice="13.696700096 0.0 0.0 -6.848350048 11.861690231 0.0 0.0 0.0 24.0" Properties=species:S:1:pos:R:3:forces:R:3 stress="-0.003919168410324615 5.5112525581549165e-06 -2.5215696868568366e-06 5.5112525581549165e-06 -0.003910960825824079 -6.054263852106761e-07 -2.5215696868568366e-06 -6.054263852106761e-07 0.0018462820900001491" free_energy=-1153.39255541 energy=-1153.38681814 pbc="T T T"
C        0.00000000       0.00000000      13.68087000      -0.03340400      -0.21316500       0.74683500
C       -0.88364000       2.29583000      13.68114000      -0.16096100       0.14670900       0.74249300
C       -1.76729000       4.59166000      13.67576000      -0.02185900      -0.00328200      -0.03583700
C       -2.65106000       6.88749000      13.67576000      -0.00764100      -0.00450900       0.02413700
C       -3.53464000       9.18320000      13.67593000      -0.02048000      -0.01651100       0.02499100
C       -4.41828000      11.47903000      13.67609000       0.05065000      -0.04599800       0.07339900
C        1.54643000       1.91317000      13.68110000       0.20417800       0.07374600       0.74203300
C        0.66278000       4.20900000      13.67643000       0.01588800       0.06688600       0.07927600
C       -0.22100000       6.50483000      13.67552000      -0.01934700       0.00545900       0.02223500
C       -1.10464000       8.80066000      13.67550000       0.00708800      -0.01388200       0.02324200
C       -1.98821000      11.09637000      13.67576000       0.00888100       0.02020800       0.02370700
C        3.97649000       1.53051000      13.67593000       0.01098500       0.01602100      -0.03125600
C        3.09285000       3.82634000      13.67567000       0.02578500      -0.00456200      -0.03554500
C        2.20907000       6.12217000      13.67577000       0.02200800      -0.00595400       0.01770500
C        1.32543000       8.41800000      13.67550000      -0.00038900      -0.00226200       0.02272300
C        0.44179000      10.71383000      13.67571000      -0.01021300       0.00181600       0.02274100
C        6.40656000       1.14786000      13.67564000       0.01049400       0.02204700       0.02905800
C        5.52292000       3.44369000      13.67540000       0.00623400       0.00769500       0.03292200
C        4.63928000       5.73952000      13.67569000       0.00636000      -0.01041100       0.02383600
C        3.75550000       8.03535000      13.67575000       0.00338400      -0.01549300       0.02801400
C        2.87186000      10.33118000      13.67594000       0.00650500      -0.01045900       0.02450300
C        8.83656000       0.76532000      13.67566000      -0.01174500       0.02568100       0.02373500
C        7.95299000       3.06103000      13.67550000      -0.00923900       0.01409000       0.02752400
C        7.06935000       5.35686000      13.67553000      -0.00172400      -0.00425300       0.02195700