145
Lattice="14.760000229 0.0 0.0 -7.380000114 12.782535158 0.0 0.0 0.0 24.0" Properties=species:S:1:pos:R:3:forces:R:3 stress="-0.003531795387935797 5.3389869062805396e-05 -0.0 5.3389869062805396e-05 -0.003470104311735567 -0.0 -0.0 -0.0 0.0048062741023864024" free_energy=-1339.63927762 energy=-1339.62964469 pbc="T T T"
C        0.00000000       0.00000000      13.87500000      -0.16185000      -0.09933400       0.02818500
C       -1.23002000       2.13047000      13.87500000      -0.15944800       0.09150200      -0.06029200
C       12.30002000       4.26080000      13.87500000      -0.01225400      -0.00838600      -0.03165000
C       -3.69000000       6.39127000      13.87500000       0.00167900      -0.00490800      -0.03184400
C       -4.92002000       8.52173000      13.87500000      -0.01058700      -0.01083100      -0.03164200
C       -6.14998000      10.65207000      13.87500000       0.00192000      -0.18838500      -0.06030300
C        2.46005000       0.00000000      13.87500000       0.16658000      -0.09875000       0.02814600
C        1.23002000       2.13047000      13.87500000      -0.00034300       0.18985900       0.02817700
C        0.00007000       4.26080000      13.87500000       0.01793700      -0.01004900      -0.02420800
C       -1.22995000       6.39127000      13.87500000      -0.01875600      -0.00990700      -0.03196500
C       -2.45998000       8.52173000      13.87500000      -0.01606800      -0.01517600      -0.03196500
C       -3.68993000      10.65207000      13.87500000      -0.00320700       0.02653500      -0.02420700
C        4.91995000       0.00000000      13.87500000      -0.01564100      -0.01512100      -0.02419100
C        3.68993000       2.13047000      13.87500000       0.16994000       0.09181000      -0.06029700
C        2.45998000       4.26080000      13.87500000      -0.01902100      -0.01026900      -0.02420100
C        1.22995000       6.39127000      13.87500000       0.00551500      -0.01699800      -0.03248700
C       -0.00007000       8.52173000      13.87500000       0.00096700      -0.00576200      -0.03186300
C       -1.23002000      10.65207000      13.87500000      -0.01006800       0.00896700      -0.03248900
C        7.38000000       0.00000000      13.87500000       0.00781400       0.01679100      -0.03196100
C        6.14998000       2.13047000      13.87500000       0.00361300       0.01375400      -0.03164400
C        4.92002000       4.26080000      13.87500000       0.01612300      -0.00838200      -0.03164900
C        3.69000000       6.39127000      13.87500000       0.02352200      -0.01042800      -0.03196100
C        2.45998000       8.52173000      13.87500000       0.00953900      -0.00605900      -0.03186100
C        1.23002000      10.65207000      13.87500000       0.00193100       0.00668600      -0.03186700
C        9.84005000       0.00000000      13.87500000      -0.00303700       0.01730300      -0.03196600
C        8.61002000       2.13047000      13.87500000      -0.00034400       0.00099800      -0.03184800
C        7.38007000       4.26080000      13.87500000       0.00112400       0.00464900      -0.03247700
C        6.15005000       6.39127000      13.87500000       0.00308700      -0.00437800      -0.03184800
C        4.92002000       8.52173000      13.87500000       0.01535800      -0.01516500      -0.03196600
C        3.69007000      10.65207000      13.87500000       0.00897600       0.00917600      -0.03249600
C       12.29995000       0.00000000      13.87500000       0.02663000      -0.01514500      -0.02419800
C       11.06993000       2.13047000      13.87500000       0.00690200       0.01406600      -0.03164500
C        9.83998000       4.26080000      13.87500000      -0.00222800       0.00442300      -0.03247200
C        8.60995000       6.39127000      13.87500000       0.00551400      -0.00793700      -0.03246800
C        7.37993000       8.52173000      13.87500000       0.02110600      -0.01052000      -0.03164500
C        6.14998000      10.65207000      13.87500000       0.00211400       0.02634000      -0.02420400
C        0.00007000       1.42027000      13.87500000      -0.17244500       0.09902600       0.02822400
C       -1.22995000       3.55073000      13.87500000      -0.00262900      -0.02631500      -0.02420100
C       -2.45990000       5.68107000      13.87500000       0.01024000       0.01539900      -0.03196000
C       -3.68993000       7.81154000      13.87500000       0.01292600       0.01013400      -0.03196100
C       -4.91995000       9.94200000      13.87500000      -0.02375600       0.01027100      -0.02420000
C       -6.14990000      12.07234000      13.87500000      -0.00544400      -0.18961300       0.02814900
C        2.45998000       1.42027000      13.87500000       0.16728900       0.09877400       0.02819100
C        1.22995000       3.55073000      13.87500000       0.00344400       0.18789200      -0.06029800
C       -0.00000000       5.68107000      13.87500000       0.01598400       0.01030700      -0.03164800
C       -1.23002000       7.81154000      13.87500000       0.00371200       0.00438000      -0.03184800
C       -2.46005000       9.94200000      13.87500000       0.01764000       0.00785300      -0.03165600
C       -3.69000000      12.07234000      13.87500000       0.16482300      -0.09200400      -0.06029200
C        4.92002000       1.42027000      13.87500000      -0.02619800       0.01543700      -0.02419800
C        3.69000000       3.55073000      13.87500000      -0.00167400      -0.02604900      -0.02420200
C        2.46005000       5.68107000      13.87500000      -0.02067300       0.01081100      -0.03164500
C        1.23002000       7.81154000      13.87500000      -0.00508300       0.00823400      -0.03246700
C        0.00000000       9.94200000      13.87500000       0.00265900      -0.00412200      -0.03247200
C       -1.22995000      12.07234000      13.87500000      -0.00646500      -0.01376000      -0.03164600
C        7.38007000       1.42027000      13.87500000      -0.00279000      -0.01708600      -0.03196200
C        6.15005000       3.55073000      13.87500000      -0.01480400      -0.00895600      -0.03249200
C        4.92010000       5.68107000      13.87500000      -0.02118500       0.01538600      -0.03196100
C        3.69007000       7.81154000      13.87500000      -0.00891600       0.00459700      -0.03184400
C        2.46005000       9.94200000      13.87500000      -0.00695400      -0.00442500      -0.03247200
C        1.23010000      12.07234000      13.87500000      -0.00547900      -0.00078000      -0.03184300
C        9.83998000       1.42027000      13.87500000      -0.00242200      -0.01730500      -0.03196500
C        8.60995000       3.55073000      13.87500000       0.00346800      -0.00720400      -0.03187200
C        7.38000000       5.68107000      13.87500000      -0.00414200       0.00554000      -0.03186700
C        6.14998000       7.81154000      13.87500000      -0.01812600       0.00991100      -0.03196600
C        4.91995000       9.94200000      13.87500000      -0.01072700       0.00786000      -0.03165300
C        3.69000000      12.07234000      13.87500000       0.00178400      -0.01427500      -0.03165000
C       12.30002000       1.42027000      13.87500000       0.01607000       0.01542300      -0.02419400
C       11.07000000       3.55073000      13.87500000       0.01051000      -0.00866900      -0.03249000
C        9.84005000       5.68107000      13.87500000      -0.00052800       0.00605800      -0.03186200
C        8.61002000       7.81154000      13.87500000      -0.00507800       0.01729400      -0.03248700
C        7.38000000       9.94200000      13.87500000       0.01946600       0.01056900      -0.02420200
C        6.15005000      12.07234000      13.87500000      -0.16950900      -0.09151800      -0.06029600
C        0.00000000       0.00000000      10.12500000      -0.16185000      -0.09933400      -0.02818500
C       -1.23002000       2.13047000      10.12500000      -0.15944800       0.09150200       0.06029200
C       12.30002000       4.26080000      10.12500000      -0.01225400      -0.00838600       0.03165000
C       -3.69000000       6.39127000      10.12500000       0.00167900      -0.00490800       0.03184400
C       -4.92002000       8.52173000      10.12500000      -0.01058700      -0.01083100       0.03164200
C       -6.14998000      10.65207000      10.12500000       0.00192000      -0.18838500       0.06030300
C        2.46005000       0.00000000      10.12500000       0.16658000      -0.09875000      -0.02814600
C        1.23002000       2.13047000      10.12500000      -0.00034300       0.18985900      -0.02817700
C        0.00007000       4.26080000      10.12500000       0.01793700      -0.01004900       0.02420800
C       -1.22995000       6.39127000      10.12500000      -0.01875600      -0.00990700       0.03196500
C       -2.45998000       8.52173000      10.12500000      -0.01606800      -0.01517600       0.03196500
C       -3.68993000      10.65207000      10.12500000      -0.00320700       0.02653500       0.02420700
C        4.91995000       0.00000000      10.12500000      -0.01564100      -0.01512100       0.02419100
C        3.68993000       2.13047000      10.12500000       0.16994000       0.09181000       0.06029700
C        2.45998000       4.26080000      10.12500000      -0.01902100      -0.01026900       0.02420100
C        1.22995000       6.39127000      10.12500000       0.00551500      -0.01699800       0.03248700
C       -0.00007000       8.52173000      10.12500000       0.00096700      -0.00576200       0.03186300
C       -1.23002000      10.65207000      10.12500000      -0.01006800       0.00896700       0.03248900
C        7.38000000       0.00000000      10.12500000       0.00781400       0.01679100       0.03196100
C        6.14998000       2.13047000      10.12500000       0.00361300       0.01375400       0.03164400
C        4.92002000       4.26080000      10.12500000       0.01612300      -0.00838200       0.03164900
C        3.69000000       6.39127000      10.12500000       0.02352200      -0.01042800       0.03196100
C        2.45998000       8.52173000      10.12500000       0.00953900      -0.00605900       0.03186100
C        1.23002000      10.65207000      10.12500000       0.00193100       0.00668600       0.03186700
C        9.84005000       0.00000000      10.12500000      -0.00303700       0.01730300       0.03196600
C        8.61002000       2.13047000      10.12500000      -0.00034400       0.00099800       0.03184800
C        7.38007000       4.26080000      10.12500000       0.00112400       0.00464900       0.03247700
C        6.15005000       6.39127000      10.12500000       0.00308700      -0.00437800       0.03184800
C        4.92002000       8.52173000      10.12500000       0.01535800      -0.01516500       0.03196600
C        3.69007000      10.65207000      10.12500000       0.00897600       0.00917600       0.03249600
C       12.29995000       0.00000000      10.12500000       0.02663000      -0.01514500       0.02419800
C       11.06993000       2.13047000      10.12500000       0.00690200       0.01406600       0.03164500
C        9.83998000       4.26080000      10.12500000      -0.00222800       0.00442300       0.03247200
C        8.60995000       6.39127000      10.12500000       0.00551400      -0.00793700       0.03246800
C        7.37993000       8.52173000      10.12500000       0.02110600      -0.01052000       0.03164500
C        6.14998000      10.65207000      10.12500000       0.00211400       0.02634000       0.02420400
C        0.00007000       1.42027000      10.12500000      -0.17244500       0.09902600      -0.02822400
C       -1.22995000       3.55073000      10.12500000      -0.00262900      -0.02631500       0.02420100
C       -2.45990000       5.68107000      10.12500000       0.01024000       0.01539900       0.03196000
C       -3.68993000       7.81154000      10.12500000       0.01292600       0.01013400       0.03196100
C       -4.91995000       9.94200000      10.12500000      -0.02375600       0.01027100       0.02420000
C       -6.14990000      12.07234000      10.12500000      -0.00544400      -0.18961300      -0.02814900
C        2.45998000       1.42027000      10.12500000       0.16728900       0.09877400      -0.02819100
C        1.22995000       3.55073000      10.12500000       0.00344400       0.18789200       0.06029800
C       -0.00000000       5.68107000      10.12500000       0.01598400       0.01030700       0.03164800
C       -1.23002000       7.81154000      10.12500000       0.00371200       0.00438000       0.03184800
C       -2.46005000       9.94200000      10.12500000       0.01764000       0.00785300       0.03165600
C       -3.69000000      12.07234000      10.12500000       0.16482300      -0.09200400       0.06029200
C        4.92002000       1.42027000      10.12500000      -0.02619800       0.01543700       0.02419800
C        3.69000000       3.55073000      10.12500000      -0.00167400      -0.02604900       0.02420200
C        2.46005000       5.68107000      10.12500000      -0.02067300       0.01081100       0.03164500
C        1.23002000       7.81154000      10.12500000      -0.00508300       0.00823400       0.03246700
C        0.00000000       9.94200000      10.12500000       0.00265900      -0.00412200       0.03247200
C       -1.22995000      12.07234000      10.12500000      -0.00646500      -0.01376000       0.03164600
C        7.38007000       1.42027000      10.12500000      -0.00279000      -0.01708600       0.03196200
C        6.15005000       3.55073000      10.12500000      -0.01480400      -0.00895600       0.03249200
C        4.92010000       5.68107000      10.12500000      -0.02118500       0.01538600       0.03196100
C        3.69007000       7.81154000      10.12500000      -0.00891600       0.00459700       0.03184400
C        2.46005000       9.94200000      10.12500000      -0.00695400      -0.00442500       0.03247200
C        1.23010000      12.07234000      10.12500000      -0.00547900      -0.00078000       0.03184300
C        9.83998000       1.42027000      10.12500000      -0.00242200      -0.01730500       0.03196500
C        8.60995000       3.55073000      10.12500000       0.00346800      -0.00720400       0.03187200
C        7.38000000       5.68107000      10.12500000      -0.00414200       0.00554000       0.03186700
C        6.14998000       7.81154000      10.12500000      -0.01812600       0.00991100       0.03196600
C        4.91995000       9.94200000      10.12500000      -0.01072700       0.00786000       0.03165300
C        3.69000000      12.07234000      10.12500000       0.00178400      -0.01427500       0.03165000
C       12.30002000       1.42027000      10.12500000       0.01607000       0.01542300       0.02419400
C       11.07000000       3.55073000      10.12500000       0.01051000      -0.00866900       0.03249000
C        9.84005000       5.68107000      10.12500000      -0.00052800       0.00605800       0.03186200
C        8.61002000       7.81154000      10.12500000      -0.00507800       0.01729400       0.03248700
C        7.38000000       9.94200000      10.12500000       0.01946600       0.01056900       0.02420200
C        6.15005000      12.07234000      10.12500000      -0.16950900      -0.09151800       0.06029600
Li       1.22995000       0.71020000      12.00000000      -0.00005300      -0.00009000       0.00000000
145
Lattice="14.760000229 0.0 0.0 -7.380000114 12.782535158 0.0 0.0 0.0 24.0" Properties=species:S:1:pos:R:3:forces:R:3 stress="-0.0034560421916749514 5.3389869062805396e-05 -0.0 5.3389869062805396e-05 -0.003394357356983848 -0.0 -0.0 -0.0 0.005137629580370419" free_energy=-1339.6453584 energy=-1339.63572541 pbc="T T T"
C        0.00000000       0.00000000      13.87636000      -0.16178600      -0.09929600       0.01607100
C       -1.23002000       2.13047000      13.87209000      -0.15950600       0.09153600      -0.01817100
C       12.30002000       4.26080000      13.87347000      -0.01225800      -0.00834900      -0.01923500
C       -3.69000000       6.39127000      13.87346000       0.00165700      -0.00492100      -0.02216500
C       -4.92002000       8.52173000      13.87347000      -0.01055700      -0.01085200      -0.01923100
C       -6.14998000      10.65207000      13.87209000       0.00192000      -0.18845300      -0.01821300
C        2.46005000       0.00000000      13.87636000       0.16651500      -0.09871100       0.01605000
C        1.23002000       2.13047000      13.87636000      -0.00034300       0.18978300       0.01607500
C        0.00007000       4.26080000      13.87383000       0.01778400      -0.01001700      -0.02618500
C       -1.22995000       6.39127000      13.87346000      -0.01874100      -0.00992200      -0.02117000
C       -2.45998000       8.52173000      13.87346000      -0.01607400      -0.01515600      -0.02117300
C       -3.68993000      10.65207000      13.87383000      -0.00325500       0.02638600      -0.02618800
C        4.91995000       0.00000000      13.87383000      -0.01553700      -0.01500500      -0.02618100
C        3.68993000       2.13047000      13.87209000       0.16999700       0.09184300      -0.01819500
C        2.45998000       4.26080000      13.87383000      -0.01886900      -0.01023700      -0.02619400
C        1.22995000       6.39127000      13.87343000       0.00551400      -0.01697400      -0.02295300
C       -0.00007000       8.52173000      13.87346000       0.00094900      -0.00577100      -0.02199800
C       -1.23002000      10.65207000      13.87343000      -0.01004800       0.00895500      -0.02295800
C        7.38000000       0.00000000      13.87346000       0.00779400       0.01678600      -0.02116700
C        6.14998000       2.13047000      13.87347000       0.00364700       0.01373900      -0.01923400
C        4.92002000       4.26080000      13.87347000       0.01612700      -0.00834500      -0.01923800
C        3.69000000       6.39127000      13.87346000       0.02350700      -0.01044300      -0.02117400
C        2.45998000       8.52173000      13.87346000       0.00955500      -0.00606700      -0.02199600
C        1.23002000      10.65207000      13.87346000       0.00193100       0.00670600      -0.02199900
C        9.84005000       0.00000000      13.87346000      -0.00301700       0.01729800      -0.02117100
C        8.61002000       2.13047000      13.87346000      -0.00034300       0.00102400      -0.02217100
C        7.38007000       4.26080000      13.87343000       0.00111100       0.00464000      -0.02245300
C        6.15005000       6.39127000      13.87346000       0.00311000      -0.00439100      -0.02217000
C        4.92002000       8.52173000      13.87346000       0.01536300      -0.01514400      -0.02117900
C        3.69007000      10.65207000      13.87343000       0.00895600       0.00916500      -0.02296000
C       12.29995000       0.00000000      13.87383000       0.02652500      -0.01502800      -0.02618500
C       11.06993000       2.13047000      13.87347000       0.00686700       0.01405100      -0.01923300
C        9.83998000       4.26080000      13.87343000      -0.00221400       0.00441500      -0.02244900
C        8.60995000       6.39127000      13.87343000       0.00551300      -0.00792100      -0.02244600
C        7.37993000       8.52173000      13.87347000       0.02107500      -0.01054100      -0.01923600
C        6.14998000      10.65207000      13.87383000       0.00216100       0.02619200      -0.02619900
C        0.00007000       1.42027000      13.87636000      -0.17238100       0.09898900       0.01607600
C       -1.22995000       3.55073000      13.87383000      -0.00258000      -0.02616700      -0.02618800
C       -2.45990000       5.68107000      13.87346000       0.01024700       0.01537900      -0.02117000
C       -3.68993000       7.81154000      13.87346000       0.01291300       0.01014900      -0.02116800
C       -4.91995000       9.94200000      13.87383000      -0.02360300       0.01023800      -0.02618800
C       -6.14990000      12.07234000      13.87636000      -0.00544500      -0.18953800       0.01604100
C        2.45998000       1.42027000      13.87636000       0.16722400       0.09873700       0.01605300
C        1.22995000       3.55073000      13.87209000       0.00344300       0.18795800      -0.01820800
C       -0.00000000       5.68107000      13.87347000       0.01595300       0.01032900      -0.01923800
C       -1.23002000       7.81154000      13.87346000       0.00373400       0.00439300      -0.02216900
C       -2.46005000       9.94200000      13.87347000       0.01764300       0.00781600      -0.01923900
C       -3.69000000      12.07234000      13.87209000       0.16488200      -0.09203800      -0.01820300
C        4.92002000       1.42027000      13.87383000      -0.02609300       0.01532000      -0.02618500
C        3.69000000       3.55073000      13.87383000      -0.00172300      -0.02590100      -0.02619400
C        2.46005000       5.68107000      13.87347000      -0.02064200       0.01083200      -0.01923400
C        1.23002000       7.81154000      13.87343000      -0.00508200       0.00821800      -0.02244400
C        0.00000000       9.94200000      13.87343000       0.00264500      -0.00411400      -0.02244700
C       -1.22995000      12.07234000      13.87347000      -0.00643000      -0.01374500      -0.01922900
C        7.38007000       1.42027000      13.87346000      -0.00280900      -0.01708200      -0.02116800
C        6.15005000       3.55073000      13.87343000      -0.01478300      -0.00894400      -0.02295700
C        4.92010000       5.68107000      13.87346000      -0.02119000       0.01536500      -0.02117700
C        3.69007000       7.81154000      13.87346000      -0.00893700       0.00461000      -0.02216700
C        2.46005000       9.94200000      13.87343000      -0.00694000      -0.00441700      -0.02245000
C        1.23010000      12.07234000      13.87346000      -0.00547700      -0.00080600      -0.02216800
C        9.83998000       1.42027000      13.87346000      -0.00240300      -0.01730000      -0.02117100
C        8.60995000       3.55073000      13.87346000       0.00346700      -0.00722300      -0.02200400
C        7.38000000       5.68107000      13.87346000      -0.00415900       0.00554900      -0.02200000
C        6.14998000       7.81154000      13.87346000      -0.01811100       0.00992600      -0.02117800
C        4.91995000       9.94200000      13.87347000      -0.01073100       0.00782300      -0.01924200
C        3.69000000      12.07234000      13.87347000       0.00175000      -0.01426000      -0.01923800
C       12.30002000       1.42027000      13.87383000       0.01596600       0.01530700      -0.02618100
C       11.07000000       3.55073000      13.87343000       0.01049000      -0.00865700      -0.02295500
C        9.84005000       5.68107000      13.87346000      -0.00051000       0.00606700      -0.02199600
C        8.61002000       7.81154000      13.87343000      -0.00507800       0.01727100      -0.02295100
C        7.38000000       9.94200000      13.87383000       0.01931400       0.01053700      -0.02619300
C        6.15005000      12.07234000      13.87209000      -0.16956800      -0.09155200      -0.01819600
C        0.00000000       0.00000000      10.12364000      -0.16178600      -0.09929600      -0.01607100
C       -1.23002000       2.13047000      10.12791000      -0.15950600       0.09153600       0.01817100
C       12.30002000       4.26080000      10.12653000      -0.01225800      -0.00834900       0.01923500
C       -3.69000000       6.39127000      10.12654000       0.00165700      -0.00492100       0.02216500
C       -4.92002000       8.52173000      10.12653000      -0.01055700      -0.01085200       0.01923100
C       -6.14998000      10.65207000      10.12791000       0.00192000      -0.18845300       0.01821300
C        2.46005000       0.00000000      10.12364000       0.16651500      -0.09871100      -0.01605000
C        1.23002000       2.13047000      10.12364000      -0.00034300       0.18978300      -0.01607500
C        0.00007000       4.26080000      10.12617000       0.01778400      -0.01001700       0.02618500
C       -1.22995000       6.39127000      10.12654000      -0.01874100      -0.00992200       0.02117000
C       -2.45998000       8.52173000      10.12654000      -0.01607400      -0.01515600       0.02117300
C       -3.68993000      10.65207000      10.12617000      -0.00325500       0.02638600       0.02618800
C        4.91995000       0.00000000      10.12617000      -0.01553700      -0.01500500       0.02618100
C        3.68993000       2.13047000      10.12791000       0.16999700       0.09184300       0.01819500
C        2.45998000       4.26080000      10.12617000      -0.01886900      -0.01023700       0.02619400
C        1.22995000       6.39127000      10.12657000       0.00551400      -0.01697400       0.02295300
C       -0.00007000       8.52173000      10.12654000       0.00094900      -0.00577100       0.02199800
C       -1.23002000      10.65207000      10.12657000      -0.01004800       0.00895500       0.02295800
C        7.38000000       0.00000000      10.12654000       0.00779400       0.01678600       0.02116700
C        6.14998000       2.13047000      10.12653000       0.00364700       0.01373900       0.01923400
C        4.92002000       4.26080000      10.12653000       0.01612700      -0.00834500       0.01923800
C        3.69000000       6.39127000      10.12654000       0.02350700      -0.01044300       0.02117400
C        2.45998000       8.52173000      10.12654000       0.00955500      -0.00606700       0.02199600
C        1.23002000      10.65207000      10.12654000       0.00193100       0.00670600       0.02199900
C        9.84005000       0.00000000      10.12654000      -0.00301700       0.01729800       0.02117100
C        8.61002000       2.13047000      10.12654000      -0.00034300       0.00102400       0.02217100
C        7.38007000       4.26080000      10.12657000       0.00111100       0.00464000       0.02245300
C        6.15005000       6.39127000      10.12654000       0.00311000      -0.00439100       0.02217000
C        4.92002000       8.52173000      10.12654000       0.01536300      -0.01514400       0.02117900
C        3.69007000      10.65207000      10.12657000       0.00895600       0.00916500       0.02296000
C       12.29995000       0.00000000      10.12617000       0.02652500      -0.01502800       0.02618500
C       11.06993000       2.13047000      10.12653000       0.00686700       0.01405100       0.01923300
C        9.83998000       4.26080000      10.12657000      -0.00221400       0.00441500       0.02244900
C        8.60995000       6.39127000      10.12657000       0.00551300      -0.00792100       0.02244600
C        7.37993000       8.52173000      10.12653000       0.02107500      -0.01054100       0.01923600
C        6.14998000      10.65207000      10.12617000       0.00216100       0.02619200       0.02619900
C        0.00007000       1.42027000      10.12364000      -0.17238100       0.09898900      -0.01607600
C       -1.22995000       3.55073000      10.12617000      -0.00258000      -0.02616700       0.02618800
C       -2.45990000       5.68107000      10.12654000       0.01024700       0.01537900       0.02117000
C       -3.68993000       7.81154000      10.12654000       0.01291300       0.01014900       0.02116800
C       -4.91995000       9.94200000      10.12617000      -0.02360300       0.01023800       0.02618800
C       -6.14990000      12.07234000      10.12364000      -0.00544500      -0.18953800      -0.01604100
C        2.45998000       1.42027000      10.12364000       0.16722400       0.09873700      -0.01605300
C        1.22995000       3.55073000      10.12791000       0.00344300       0.18795800       0.01820800
C       -0.00000000       5.68107000      10.12653000       0.01595300       0.01032900       0.01923800
C       -1.23002000       7.81154000      10.12654000       0.00373400       0.00439300       0.02216900
C       -2.46005000       9.94200000      10.12653000       0.01764300       0.00781600       0.01923900
C       -3.69000000      12.07234000      10.12791000       0.16488200      -0.09203800       0.01820300
C        4.92002000       1.42027000      10.12617000      -0.02609300       0.01532000       0.02618500
C        3.69000000       3.55073000      10.12617000      -0.00172300      -0.02590100       0.02619400
C        2.46005000       5.68107000      10.12653000      -0.02064200       0.01083200       0.01923400
C        1.23002000       7.81154000      10.12657000      -0.00508200       0.00821800       0.02244400
C        0.00000000       9.94200000      10.12657000       0.00264500      -0.00411400       0.02244700
C       -1.22995000      12.07234000      10.12653000      -0.00643000      -0.01374500       0.01922900
C        7.38007000       1.42027000      10.12654000      -0.00280900      -0.01708200       0.02116800
C        6.15005000       3.55073000      10.12657000      -0.01478300      -0.00894400       0.02295700
C        4.92010000       5.68107000      10.12654000      -0.02119000       0.01536500       0.02117700
C        3.69007000       7.81154000      10.12654000      -0.00893700       0.00461000       0.02216700
C        2.46005000       9.94200000      10.12657000      -0.00694000      -0.00441700       0.02245000
C        1.23010000      12.07234000      10.12654000      -0.00547700      -0.00080600       0.02216800
C        9.83998000       1.42027000      10.12654000      -0.00240300      -0.01730000       0.02117100
C        8.60995000       3.55073000      10.12654000       0.00346700      -0.00722300       0.02200400