145
Lattice="14.760000229 0.0 0.0 -7.380000114 12.782535158 0.0 0.0 0.0 24.0" Properties=species:S:1:pos:R:3:forces:R:3 stress="-0.0034434156187132903 5.3558389809204234e-05 -1.8724527377649773e-07 5.3558389809204234e-05 -0.0033816059538396685 1.2483018251766518e-07 -1.8724527377649773e-07 1.2483018251766518e-07 0.0013537521218584495" free_energy=-1338.862248 energy=-1338.85269456 pbc="T T T"
C        0.00000000       0.00000000      13.67500000       0.00508400      -0.32921100       0.16046200
C       -1.23002000       2.13047000      13.67500000      -0.27752500       0.15968300       0.16033100
C       12.30002000       4.26080000      13.67500000      -0.02037100      -0.01529600      -0.00736300
C       -3.69000000       6.39127000      13.67500000      -0.00695600      -0.00972300      -0.00795500
C       -4.92002000       8.52173000      13.67500000      -0.00680900      -0.01057400      -0.00795700
C       -6.14998000      10.65207000      13.67500000      -0.02370800      -0.00951800      -0.00737400
C        2.46005000       0.00000000      13.67500000       0.05986300      -0.03717400       0.00729800
C        1.23002000       2.13047000      13.67500000       0.28225500       0.16021700       0.16042900
C        0.00007000       4.26080000      13.67500000      -0.00343000       0.07144600       0.00728800
C       -1.22995000       6.39127000      13.67500000      -0.01895500      -0.00839000      -0.00743900
C       -2.45998000       8.52173000      13.67500000      -0.01605200      -0.01204600      -0.00743800
C       -3.68993000      10.65207000      13.67500000      -0.01791600      -0.01122900      -0.00744400
C        4.91995000       0.00000000      13.67500000       0.00973900       0.01650200      -0.00743400
C        3.68993000       2.13047000      13.67500000       0.00219300       0.02456800      -0.00737200
C        2.45998000       4.26080000      13.67500000       0.02476400      -0.01501900      -0.00737300
C        1.22995000       6.39127000      13.67500000       0.02423700      -0.00859800      -0.00743600
C       -0.00007000       8.52173000      13.67500000       0.00550600      -0.00774300      -0.00794700
C       -1.23002000      10.65207000      13.67500000      -0.00153500       0.00404300      -0.00794800
C        7.38000000       0.00000000      13.67500000       0.00512100       0.01520500      -0.00743000
C        6.14998000       2.13047000      13.67500000       0.00528300       0.01036300      -0.00795700
C        4.92002000       4.26080000      13.67500000       0.00325700       0.00220100      -0.01093300
C        3.69000000       6.39127000      13.67500000       0.01719100      -0.00973000      -0.00795500
C        2.45998000       8.52173000      13.67500000       0.02081900      -0.01256900      -0.00743100
C        1.23002000      10.65207000      13.67500000       0.00592000       0.00375300      -0.00794800
C        9.84005000       0.00000000      13.67500000      -0.00445100       0.01670000      -0.00743800
C        8.61002000       2.13047000      13.67500000      -0.00050200       0.01088100      -0.00796300
C        7.38007000       4.26080000      13.67500000      -0.00343100       0.00491300      -0.00755100
C        6.15005000       6.39127000      13.67500000       0.00227000      -0.00391300      -0.00754400
C        4.92002000       8.52173000      13.67500000       0.01157500      -0.01003400      -0.00796300
C        3.69007000      10.65207000      13.67500000       0.01105800      -0.01123600      -0.00744400
C       12.29995000       0.00000000      13.67500000      -0.05461000      -0.03738700       0.00728900
C       11.06993000       2.13047000      13.67500000       0.00881000       0.02456500      -0.00736600
C        9.83998000       4.26080000      13.67500000       0.00112000       0.00249500      -0.01093400
C        8.60995000       6.39127000      13.67500000       0.00300600      -0.00412800      -0.00754300
C        7.37993000       8.52173000      13.67500000       0.00551100      -0.00467300      -0.01093300
C        6.14998000      10.65207000      13.67500000       0.02812900      -0.00921400      -0.00737700
C        0.00007000       1.42027000      13.67500000      -0.00538000       0.00254500       3.78633900
C       -1.22995000       3.55073000      13.67500000      -0.01783100       0.14821500       0.00910100
C       -2.45990000       5.68107000      13.67500000       0.01821500       0.01896200       0.00659400
C       -3.68993000       7.81154000      13.67500000       0.00883500       0.01088800       0.00377900
C       -4.91995000       9.94200000      13.67500000       0.02318500       0.01078600       0.00659000
C       -6.14990000      12.07234000      13.67500000       0.11671700      -0.08534400       0.00911400
C        2.45998000       1.42027000      13.67500000       0.13805400      -0.05915700       0.00912100
C        1.22995000       3.55073000      13.67500000       0.01902000       0.14796400       0.00909500
C       -0.00000000       5.68107000      13.67500000       0.00038000       0.00356800      -0.00135500
C       -1.23002000       7.81154000      13.67500000       0.00369500       0.00168800       0.00376200
C       -2.46005000       9.94200000      13.67500000       0.00456500       0.00121800       0.00375800
C       -3.69000000      12.07234000      13.67500000       0.00096400       0.00257300      -0.00135700
C        4.92002000       1.42027000      13.67500000      -0.00317700      -0.02547100       0.00659400
C        3.69000000       3.55073000      13.67500000      -0.00393500      -0.00267300       0.00822000
C        2.46005000       5.68107000      13.67500000      -0.02864400       0.01923500       0.00659500
C        1.23002000       7.81154000      13.67500000      -0.00838400       0.00219900       0.00376700
C        0.00000000       9.94200000      13.67500000      -0.00189100      -0.00149000       0.00422400
C       -1.22995000      12.07234000      13.67500000      -0.00726900       0.00088800       0.00376600
C        7.38007000       1.42027000      13.67500000      -0.00548600      -0.01391800       0.00377900
C        6.15005000       3.55073000      13.67500000      -0.00441000      -0.01617000       0.00440400
C        4.92010000       5.68107000      13.67500000      -0.01893100       0.00851500       0.00440900
C        3.69007000       7.81154000      13.67500000      -0.01979800       0.01088000       0.00378000
C        2.46005000       9.94200000      13.67500000      -0.00338300       0.00145700       0.00376400
C        1.23010000      12.07234000      13.67500000      -0.00317100       0.00058100       0.00376800
C        9.83998000       1.42027000      13.67500000      -0.00151100      -0.02599800       0.00658700
C        8.60995000       3.55073000      13.67500000       0.00559600      -0.01640300       0.00440000
C        7.38000000       5.68107000      13.67500000       0.00039300       0.00291400       0.00517600
C        6.14998000       7.81154000      13.67500000      -0.01104500       0.01138200       0.00440400
C        4.91995000       9.94200000      13.67500000      -0.02200800       0.01055200       0.00658800
C        3.69000000      12.07234000      13.67500000      -0.00019500       0.00260200      -0.00135900
C       12.30002000       1.42027000      13.67500000      -0.14265000      -0.05868700       0.00910600
C       11.07000000       3.55073000      13.67500000       0.00016700      -0.00269300       0.00821900
C        9.84005000       5.68107000      13.67500000       0.00850800       0.00881300       0.00440800
C        8.61002000       7.81154000      13.67500000       0.00636700       0.01190300       0.00440800
C        7.38000000       9.94200000      13.67500000      -0.00190600       0.00086800       0.00822100
C        6.15005000      12.07234000      13.67500000      -0.12712600      -0.08499100       0.00908500
C        0.00000000       0.00000000      10.32500000      -0.00512800      -0.28183000      -0.18885200
C       -1.23002000       2.13047000      10.32500000      -0.24848200       0.14088300      -0.18874000
C       12.30002000       4.26080000      10.32500000      -0.00532800      -0.02867600       0.00188500
C       -3.69000000       6.39127000      10.32500000       0.01164000       0.01839800       0.00828600
C       -4.92002000       8.52173000      10.32500000       0.01977400       0.00531100       0.00829100
C       -6.14998000      10.65207000      10.32500000      -0.03304900       0.01926700       0.00188900
C        2.46005000       0.00000000      10.32500000       0.17561400      -0.10194400       0.04022900
C        1.23002000       2.13047000      10.32500000       0.24423100       0.14065000      -0.18883300
C        0.00007000       4.26080000      10.32500000      -0.00548100       0.21234000       0.04024200
C       -1.22995000       6.39127000      10.32500000       0.01153000       0.01252700       0.00683800
C       -2.45998000       8.52173000      10.32500000       0.00042100      -0.00012900       0.00760300
C       -3.68993000      10.65207000      10.32500000       0.01161000       0.01302900       0.00683900
C        4.91995000       0.00000000      10.32500000       0.00029200      -0.01730200       0.00684000
C        3.68993000       2.13047000      10.32500000      -0.02425600       0.01434900       0.00190100
C        2.45998000       4.26080000      10.32500000       0.00062100      -0.02917100       0.00189400
C        1.22995000       6.39127000      10.32500000      -0.01680200       0.01230800       0.00684000
C       -0.00007000       8.52173000      10.32500000       0.00343900       0.00522600       0.00818800
C       -1.23002000      10.65207000      10.32500000       0.00659000      -0.00066000       0.00818400
C        7.38000000       0.00000000      10.32500000      -0.00511800      -0.00030500       0.00759600
C        6.14998000       2.13047000      10.32500000       0.00304000      -0.02368700       0.00829000
C        4.92002000       4.26080000      10.32500000      -0.02026300      -0.00529700       0.00972300
C        3.69000000       6.39127000      10.32500000      -0.02185200       0.01839000       0.00828600
C        2.45998000       8.52173000      10.32500000      -0.00478200       0.00015600       0.00760000
C        1.23002000      10.65207000      10.32500000      -0.01131800      -0.00013700       0.00818000
C        9.84005000       0.00000000      10.32500000      -0.00555700      -0.01707800       0.00683600
C        8.61002000       2.13047000      10.32500000      -0.00740800      -0.02399900       0.00829400
C        7.38007000       4.26080000      10.32500000      -0.00550200      -0.00159900       0.00827900
C        6.15005000       6.39127000      10.32500000      -0.00967500       0.00503700       0.00827600
C        4.92002000       8.52173000      10.32500000      -0.02414100       0.00501200       0.00829300
C        3.69007000      10.65207000      10.32500000      -0.02259300       0.01303900       0.00684000
C       12.29995000       0.00000000      10.32500000      -0.18079200      -0.10212800       0.04024300
C       11.06993000       2.13047000      10.32500000       0.03110800       0.01432100       0.00190100
C        9.83998000       4.26080000      10.32500000       0.01552900      -0.00580200       0.00972700
C        8.60995000       6.39127000      10.32500000       0.00443000       0.00482600       0.00828000
C        7.37993000       8.52173000      10.32500000       0.00343200       0.01555700       0.00973200
C        6.14998000      10.65207000      10.32500000       0.02831300       0.01879400       0.00189800
C        1.22995000       0.71020000      10.32500000       0.24514800      -0.14206900      -0.18698200
C       -0.00000000       2.84053000      10.32500000       0.00184300       0.27879800      -0.18689500
C       -1.23002000       4.97100000      10.32500000       0.03914900      -0.02354500      -0.00983100
C       -2.46005000       7.10147000      10.32500000      -0.01412000      -0.01199200      -0.00405000
C       -3.69000000       9.23180000      10.32500000      -0.01508700      -0.01076200      -0.00404400
C       -4.92002000      11.36227000      10.32500000       0.00417400       0.03701400      -0.00982900
C        3.69000000       0.71020000      10.32500000      -0.03536400      -0.02213200      -0.00982300
C        2.46005000       2.84053000      10.32500000       0.16561500       0.09964800       0.02920600
C        1.23002000       4.97100000      10.32500000      -0.03452100      -0.02306100      -0.00982700
C        0.00000000       7.10147000      10.32500000      -0.00039800      -0.02140700      -0.00250600
C       -1.22995000       9.23180000      10.32500000      -0.00753200      -0.00027800      -0.00374700
C       -2.45998000      11.36227000      10.32500000      -0.01641300       0.00688400      -0.00250500
C        6.14990000       0.71020000      10.32500000       0.00757100       0.01769800      -0.00405000
C        4.91995000       2.84053000      10.32500000      -0.00378900       0.01861800      -0.00484300
C        3.68993000       4.97100000      10.32500000       0.01696300      -0.01631000      -0.00484600
C        2.45990000       7.10147000      10.32500000       0.02452500      -0.01169200      -0.00404900
C        1.22995000       9.23180000      10.32500000       0.00632000      -0.00050900      -0.00375100
C       -0.00007000      11.36227000      10.32500000       0.00545100       0.00203100      -0.00375500
C        8.60995000       0.71020000      10.32500000       0.00284700       0.01739800      -0.00405000
C        7.38000000       2.84053000      10.32500000       0.00187300       0.00238800      -0.00417300
C        6.14998000       4.97100000      10.32500000       0.00998500      -0.00004200      -0.00312200
C        4.91995000       7.10147000      10.32500000       0.00575400      -0.00387400      -0.00417800
C        3.69000000       9.23180000      10.32500000       0.01884000      -0.01075400      -0.00404400
C        2.45998000      11.36227000      10.32500000       0.02104900       0.00635100      -0.00251000
C       11.07000000       0.71020000      10.32500000       0.03455400      -0.02213200      -0.00982900
C        9.84005000       2.84053000      10.32500000       0.00259500       0.01882800      -0.00483500
C        8.61002000       4.97100000      10.32500000      -0.00531700       0.00049100      -0.00311800
C        7.38000000       7.10147000      10.32500000      -0.00040100      -0.00862600      -0.00311900
C        6.15005000       9.23180000      10.32500000       0.01410200      -0.00109000      -0.00483900
C        4.92002000      11.36227000      10.32500000       0.00046200       0.03752800      -0.00982400
C       13.52990000       0.71020000      10.32500000      -0.23469900      -0.14172000      -0.18680500
C       12.29995000       2.84053000      10.32500000      -0.16680700       0.09945500       0.02919900
C       11.06993000       4.97100000      10.32500000      -0.00605600      -0.01628700      -0.00484400
C        9.83990000       7.10147000      10.32500000       0.00464400      -0.00358200      -0.00417800
C        8.60995000       9.23180000      10.32500000      -0.01529600      -0.00132200      -0.00484100
C        7.37993000      11.36227000      10.32500000       0.00544800      -0.19791400       0.02920200
Li       0.00007000       1.42027000      12.00000000      -0.00019400      -0.00004000      -3.36752300
145
Lattice="14.760000229 0.0 0.0 -7.380000114 12.782535158 0.0 0.0 0.0 24.0" Properties=species:S:1:pos:R:3:forces:R:3 stress="-0.00350616775146492 5.343355962668658e-05 8.113961863648234e-08 5.343355962668658e-05 -0.0034445266073376978 -0.0 8.113961863648234e-08 -0.0 0.002374138999794348" free_energy=-1339.1901584 energy=-1339.18054873 pbc="T T T"
C        0.00000000       0.00000000      13.68274000       0.00507600      -0.11277200       1.01330600
C       -1.23002000       2.13047000      13.68273000      -0.09031000       0.05159500       1.01387800
C       12.30002000       4.26080000      13.67464000      -0.01490500      -0.00601900      -0.08644000
C       -3.69000000       6.39127000      13.67462000      -0.00555000      -0.00863500       0.00765300
C       -4.92002000       8.52173000      13.67462000      -0.00515700      -0.00992500       0.00764400
C       -6.14998000      10.65207000      13.67464000      -0.01294200      -0.00945900      -0.08643200
C        2.46005000       0.00000000      13.67535000       0.05262700      -0.03299600       0.07142200
C        1.23002000       2.13047000      13.68274000       0.09480000       0.05200300       1.01341200
C        0.00007000       4.26080000      13.67535000      -0.00341500       0.06305400       0.07141000
C       -1.22995000       6.39127000      13.67464000      -0.01613900      -0.00758600      -0.00017800
C       -2.45998000       8.52173000      13.67464000      -0.01381200      -0.01077200       0.00070500
C       -3.68993000      10.65207000      13.67464000      -0.01579500      -0.00921900      -0.00018300
C        4.91995000       0.00000000      13.67464000       0.00906000       0.01366000      -0.00017300
C        3.68993000       2.13047000      13.67464000       0.00752100       0.01521400      -0.08645300
C        2.45998000       4.26080000      13.67464000       0.01930100      -0.00575400      -0.08650900
C        1.22995000       6.39127000      13.67464000       0.02145200      -0.00779600      -0.00018000
C       -0.00007000       8.52173000      13.67462000       0.00552400      -0.00759400       0.00197600
C       -1.23002000      10.65207000      13.67462000      -0.00138300       0.00395400       0.00197200
C        7.38000000       0.00000000      13.67464000       0.00513800       0.01262800       0.00071300
C        6.14998000       2.13047000      13.67462000       0.00554700       0.00860700       0.00764600
C        4.92002000       4.26080000      13.67447000       0.00308300       0.00208200       0.01461900
C        3.69000000       6.39127000      13.67462000       0.01579400      -0.00863800       0.00759500
C        2.45998000       8.52173000      13.67464000       0.01861000      -0.01129300       0.00070300
C        1.23002000      10.65207000      13.67462000       0.00580100       0.00366200       0.00197500
C        9.84005000       0.00000000      13.67464000      -0.00374200       0.01386100      -0.00017700
C        8.61002000       2.13047000      13.67462000      -0.00074000       0.00912000       0.00764000
C        7.38007000       4.26080000      13.67464000      -0.00341400       0.00414100      -0.00057300
C        6.15005000       6.39127000      13.67464000       0.00162400      -0.00354100      -0.00056800
C        4.92002000       8.52173000      13.67462000       0.00993200      -0.00936900       0.00759100
C        3.69007000      10.65207000      13.67464000       0.00897100      -0.00922400      -0.00019300
C       12.29995000       0.00000000      13.67535000      -0.04733700      -0.03320400       0.07141600
C       11.06993000       2.13047000      13.67464000       0.00350900       0.01519100      -0.08643400
C        9.83998000       4.26080000      13.67447000       0.00132600       0.00237700       0.01462100
C        8.60995000       6.39127000      13.67464000       0.00368300      -0.00375500      -0.00056600
C        7.37993000       8.52173000      13.67447000       0.00552800      -0.00446200       0.01462100
C        6.14998000      10.65207000      13.67464000       0.01737000      -0.00911500      -0.08652300
C        0.00007000       1.42027000      13.85766000      -0.00500800       0.00236800      -1.60516400
C       -1.22995000       3.55073000      13.67544000      -0.02608000       0.14431100      -0.02125700
C       -2.45990000       5.68107000      13.67532000       0.01395900       0.01789100      -0.01107800
C       -3.68993000       7.81154000      13.67518000       0.00691100       0.00979800      -0.00435400
C       -4.91995000       9.94200000      13.67532000       0.02010600       0.00766800      -0.01108200
C       -6.14990000      12.07234000      13.67544000       0.10917400      -0.09048700      -0.02119700
C        2.45998000       1.42027000      13.67544000       0.13872600      -0.05006200      -0.02129100
C        1.22995000       3.55073000      13.67544000       0.02712400       0.14385700      -0.02151000
C       -0.00000000       5.68107000      13.67493000       0.00036700       0.00513900       0.00195500
C       -1.23002000       7.81154000      13.67518000       0.00337000       0.00227400      -0.00516000
C       -2.46005000       9.94200000      13.67518000       0.00489700       0.00067100      -0.00516200
C       -3.69000000      12.07234000      13.67493000       0.00229800       0.00180300       0.00195600
C        4.92002000       1.42027000      13.67532000      -0.00201600      -0.02123900      -0.01107700
C        3.69000000       3.55073000      13.67540000      -0.00378400      -0.00256800       0.00990100
C        2.46005000       5.68107000      13.67532000      -0.02446700       0.01805900      -0.01125300
C        1.23002000       7.81154000      13.67518000      -0.00809100       0.00278900      -0.00515800
C        0.00000000       9.94200000      13.67520000      -0.00190600      -0.00148200      -0.00482000
C       -1.22995000      12.07234000      13.67518000      -0.00663000       0.00087500      -0.00515500
C        7.38007000       1.42027000      13.67518000      -0.00550400      -0.01171500      -0.00435500
C        6.15005000       3.55073000      13.67521000      -0.00400300      -0.01471500      -0.00658500
C        4.92010000       5.68107000      13.67521000      -0.01748300       0.00816900      -0.00658300
C        3.69007000       7.81154000      13.67518000      -0.01790300       0.00978600      -0.00451400
C        2.46005000       9.94200000      13.67518000      -0.00374800       0.00090900      -0.00516200
C        1.23010000      12.07234000      13.67518000      -0.00384000       0.00057100      -0.00515800
C        9.83998000       1.42027000      13.67532000      -0.00271400      -0.02177100      -0.01107800
C        8.60995000       3.55073000      13.67521000       0.00515700      -0.01494700      -0.00658700
C        7.38000000       5.68107000      13.67525000       0.00037700       0.00292300      -0.00396700
C        6.14998000       7.81154000      13.67521000      -0.01002200       0.01030100      -0.00658600
C        4.91995000       9.94200000      13.67532000      -0.01890000       0.00752400      -0.01125900
C        3.69000000      12.07234000      13.67493000      -0.00156000       0.00182500       0.00195100
C       12.30002000       1.42027000      13.67544000      -0.14339700      -0.04959400      -0.02126500
C       11.07000000       3.55073000      13.67540000      -0.00001500      -0.00258700       0.00990100
C        9.84005000       5.68107000      13.67521000       0.00702700       0.00846600      -0.00658100
C        8.61002000       7.81154000      13.67521000       0.00531100       0.01082300      -0.00658100
C        7.38000000       9.94200000      13.67540000      -0.00191900       0.00068500       0.00989800
C        6.15005000      12.07234000      13.67544000      -0.11952000      -0.08996900      -0.02144100
C        0.00000000       0.00000000      10.31589000      -0.00508400      -0.41884300      -0.31447300
C       -1.23002000       2.13047000      10.31589000      -0.36705000       0.20934900      -0.31434500
C       12.30002000       4.26080000      10.32509000      -0.00419200      -0.03079200       0.00841200
C       -3.69000000       6.39127000      10.32540000       0.01412400       0.02043800      -0.00091400
C       -4.92002000       8.52173000      10.32540000       0.02279700       0.00641700      -0.00090900
C       -6.14998000      10.65207000      10.32509000      -0.03429600       0.02127400       0.00841300
C        2.46005000       0.00000000      10.32694000       0.19471000      -0.11297000      -0.02900600
C        1.23002000       2.13047000      10.31589000       0.36286800       0.20911500      -0.31447000
C        0.00007000       4.26080000      10.32694000      -0.00546200       0.23436500      -0.02893400
C       -1.22995000       6.39127000      10.32533000       0.01460300       0.01279900      -0.00082700
C       -2.45998000       8.52173000      10.32537000       0.00118300       0.00029600      -0.00035500
C       -3.68993000      10.65207000      10.32533000       0.01339400       0.01553000      -0.00082300
C        4.91995000       0.00000000      10.32533000      -0.00098400      -0.02009800      -0.00082200
C        3.68993000       2.13047000      10.32509000      -0.02662200       0.01442700       0.00841800
C        2.45998000       4.26080000      10.32509000      -0.00047800      -0.03129300       0.00844900
C        1.22995000       6.39127000      10.32533000      -0.01984500       0.01257500      -0.00081300
C       -0.00007000       8.52173000      10.32540000       0.00345400       0.00580500       0.00040800
C       -1.23002000      10.65207000      10.32539000       0.00711100      -0.00096200       0.00040400
C        7.38000000       0.00000000      10.32537000      -0.00510500      -0.00117700      -0.00036300
C        6.14998000       2.13047000      10.32540000       0.00359400      -0.02685800      -0.00091000
C        4.92002000       4.26080000      10.32547000      -0.02035500      -0.00537000       0.00070800
C        3.69000000       6.39127000      10.32540000      -0.02430400       0.02042700      -0.00089300
C        2.45998000       8.52173000      10.32537000      -0.00551200       0.00057700      -0.00034700
C        1.23002000      10.65207000      10.32539000      -0.01181100      -0.00043900       0.00039900
C        9.84005000       0.00000000      10.32533000      -0.00425500      -0.01987600      -0.00083100
C        8.61002000       2.13047000      10.32540000      -0.00793300      -0.02716900      -0.00090600
C        7.38007000       4.26080000      10.32540000      -0.00548500      -0.00277300       0.00020400
C        6.15005000       6.39127000      10.32540000      -0.01066400       0.00560900       0.00019900
C        4.92002000       8.52173000      10.32540000      -0.02713100       0.00611800      -0.00088500
C        3.69007000      10.65207000      10.32533000      -0.02434600       0.01554100      -0.00081600
C       12.29995000       0.00000000      10.32694000      -0.19985400      -0.11315400      -0.02890500
C       11.06993000       2.13047000      10.32509000       0.03350300       0.01439700       0.00842000
C        9.83998000       4.26080000      10.32547000       0.01565500      -0.00587300       0.00071500
C        8.60995000       6.39127000      10.32540000       0.00545600       0.00539900       0.00020400
C        7.37993000       8.52173000      10.32547000       0.00344900       0.01567300       0.00071700
C        6.14998000      10.65207000      10.32509000       0.02960100       0.02080900       0.00845200
C        1.22995000       0.71020000      10.31598000       0.36035100      -0.20858000      -0.31097000
C       -0.00000000       2.84053000      10.31598000       0.00182000       0.41180900      -0.31082400
C       -1.23002000       4.97100000      10.32453000       0.04190100      -0.02746900       0.01335600
C       -2.46005000       7.10147000      10.32480000      -0.01679400      -0.01316900       0.00471700
C       -3.69000000       9.23180000      10.32480000      -0.01745700      -0.01246800       0.00472000
C       -4.92002000      11.36227000      10.32453000       0.00213500       0.04138400       0.01335200
C        3.69000000       0.71020000      10.32453000      -0.04016600      -0.02255100       0.01335800
C        2.46005000       2.84053000      10.32641000       0.18016700       0.10806200      -0.02641400
C        1.23002000       4.97100000      10.32453000      -0.03731200      -0.02699000       0.01337900
C        0.00000000       7.10147000      10.32488000      -0.00041300      -0.02303300       0.00600400
C       -1.22995000       9.23180000      10.32482000      -0.00811600      -0.00059900       0.00540800
C       -2.45998000      11.36227000      10.32488000      -0.01784200       0.00770900       0.00600300
C        6.14990000       0.71020000      10.32480000       0.00786400       0.02060500       0.00471800
C        4.91995000       2.84053000      10.32477000      -0.00637300       0.02022000       0.00554500
C        3.68993000       4.97100000      10.32477000       0.01703900      -0.01932600       0.00555100
C        2.45990000       7.10147000      10.32480000       0.02716900      -0.01286800       0.00473900
C        1.22995000       9.23180000      10.32482000       0.00687300      -0.00082700       0.00540400
C       -0.00007000      11.36227000      10.32482000       0.00543700       0.00269700       0.00540200
C        8.60995000       0.71020000      10.32480000       0.00253000       0.02030200       0.00471700
C        7.38000000       2.84053000      10.32480000       0.00186100       0.00342200       0.00590800
C        6.14998000       4.97100000      10.32485000       0.00940400      -0.00036000       0.00674100
C        4.91995000       7.10147000      10.32480000       0.00662200      -0.00437500       0.00591500
C        3.69000000       9.23180000      10.32480000       0.02118100      -0.01245500       0.00474100
C        2.45998000      11.36227000      10.32488000       0.02245000       0.00717900       0.00600000
C       11.07000000       0.71020000      10.32453000       0.03933000      -0.02255500       0.01335800