149
Lattice="14.963600159 0.0 0.0 -7.481800079 12.958857869 0.0 0.0 0.0 24.0" Properties=species:S:1:pos:R:3:forces:R:3 stress="-0.003683351712530494 2.559018741612136e-06 8.113961863648234e-08 2.559018741612136e-06 -0.0036809487315170287 -1.6227923727296468e-07 8.113961863648234e-08 -1.6227923727296468e-07 0.0012069580687268009" free_energy=-1375.9141318 energy=-1375.90831901 pbc="T T T"
C        0.00000000       0.00000000      13.67500000      -0.12239500      -0.26252600       0.24358700
C       -5.05523000       9.45647000      13.67500000       0.02227100       0.00968200       0.02691100
C       -5.25746000      11.90815000      13.67500000       0.11937000      -0.16844100      -0.01125200
C       -2.62881000       5.95408000      13.67500000      -0.00607100       0.00207500       0.00890900
C       -2.83089000       8.40576000      13.67500000       0.00059200      -0.01328400       0.02731000
C       -3.03312000      10.85745000      13.67500000       0.00682500      -0.01667300       0.02039400
C       -0.20223000       2.45169000      13.67500000      -0.17029600       0.23200700       0.22038800
C       -0.40447000       4.90337000      13.67500000      -0.01704000      -0.01538300       0.02500900
C       -0.60670000       7.35506000      13.67500000       0.00681200       0.00772000       0.01626900
C       -0.80893000       9.80675000      13.67500000       0.00715400       0.00768700       0.01651300
C       -1.01102000      12.25843000      13.67500000       0.01515700      -0.01119900       0.01028700
C        2.02211000       1.40098000      13.67500000       0.28036300       0.02887100       0.21960100
C        1.81987000       3.85267000      13.67500000       0.07785100       0.18914900      -0.00649300
C        1.61764000       6.30435000      13.67500000       0.02034900       0.00893500       0.02927800
C        1.41541000       8.75604000      13.67500000       0.00463000      -0.00488200       0.01651900
C        1.21325000      11.20760000      13.67500000      -0.00608600       0.00565200       0.02795400
C        4.24645000       0.35028000      13.67500000      -0.02559700       0.03293600       0.03124100
C        4.04421000       2.80196000      13.67500000      -0.00762000      -0.02232000       0.02128400
C        3.84198000       5.25365000      13.67500000      -0.00380000       0.03018800       0.01121800
C        3.63982000       7.70521000      13.67500000      -0.00123700      -0.00466300       0.00987600
C        3.43759000      10.15689000      13.67500000      -0.02172400       0.00143300       0.01883500
C        3.23535000      12.60858000      13.67500000      -0.00277500      -0.00140300       0.02716400
C        6.26855000       1.75126000      13.67500000       0.00091300      -0.00807200       0.02627800
C        6.06639000       4.20282000      13.67500000      -0.00101100       0.01910100       0.01452900
C        5.86416000       6.65450000      13.67500000      -0.00793500      -0.00356200       0.02813400
C        5.66193000       9.10619000      13.67500000       0.01585900       0.01494600       0.02367200
C        5.45969000      11.55788000      13.67500000       0.03474100      -0.00266500       0.02702700
C        8.49282000       0.70043000      13.67500000      -0.01844900      -0.01057000       0.00950800
C        8.29073000       3.15211000      13.67500000      -0.00670800      -0.00175600       0.01544100
C        8.08850000       5.60380000      13.67500000       0.00195100      -0.00097800       0.01502300
C        7.88627000       8.05549000      13.67500000       0.01651300      -0.01132000       0.01427500
C        7.68403000      10.50717000      13.67500000      -0.01391400       0.02812000       0.02678500
C       10.51492000       2.10141000      13.67500000      -0.01875600      -0.01707800       0.01603400
C       10.31269000       4.55309000      13.67500000      -0.00725500       0.00132600       0.02721400
C       10.11061000       7.00478000      13.67500000       0.01138400      -0.00780200       0.01037200
C       12.73926000       1.05070000      13.67500000      -0.21116000      -0.02647700      -0.01186100
C       12.53703000       3.50239000      13.67500000       0.02988200      -0.00822300       0.03161100
C       -5.86409000      10.62393000      13.67500000       0.02143500       0.03763000       0.03776600
C       -3.43751000       7.12154000      13.67500000      -0.00397200       0.00435800       0.02871800
C       -3.63975000       9.57323000      13.67500000      -0.00655900       0.02393900       0.04118000
C       -3.84198000      12.02491000      13.67500000      -0.04375200      -0.01324500       0.03254000
C       -1.01109000       3.61915000      13.67500000      -0.10181600       0.15769800      -0.00665100
C       -1.21332000       6.07084000      13.67500000      -0.00910500      -0.01843200       0.03236700
C       -1.41556000       8.52252000      13.67500000       0.00799900      -0.00699700       0.03744700
C       -1.61764000      10.97421000      13.67500000      -0.00840500       0.01297400       0.03154700
C        1.41548000       0.11676000      13.67500000       0.16300100      -0.22778100       0.21438400
C        1.21325000       2.56845000      13.67500000       0.11687100       0.25266400       0.21370700
C        1.01102000       5.02013000      13.67500000       0.00881300      -0.03839200       0.04884300
C        0.80878000       7.47182000      13.67500000      -0.00762400       0.00724800       0.03725600
C        0.60655000       9.92350000      13.67500000      -0.00680400      -0.00331100       0.03747400
C        0.40439000      12.37506000      13.67500000       0.00003400      -0.00085700       0.02966400
C        3.43759000       1.51774000      13.67500000       0.18937600       0.03151000       0.00211600
C        3.23535000       3.96943000      13.67500000      -0.04900600       0.00043300       0.03092600
C        3.03312000       6.42111000      13.67500000      -0.00489100      -0.01110400       0.02770700
C        2.83096000       8.87267000      13.67500000       0.00647700       0.01069600       0.03173000
C        2.62873000      11.32436000      13.67500000       0.01744700      -0.01923800       0.04294100
C        5.66193000       0.46704000      13.67500000      -0.00868200       0.00672300       0.03613600
C        5.45969000       2.91872000      13.67500000       0.01349600      -0.01598200       0.04045000
C        5.25754000       5.37028000      13.67500000       0.01827100       0.00256200       0.03420200
C        5.05530000       7.82197000      13.67500000      -0.00318000       0.00680800       0.03457800
C        4.85307000      10.27365000      13.67500000       0.00652400       0.00059800       0.02747800
C        4.65084000      12.72534000      13.67500000       0.01531200       0.03297100       0.03803400
C        7.68411000       1.86789000      13.67500000      -0.01175600       0.00895100       0.03353700
C        7.48187000       4.31958000      13.67500000      -0.00349800       0.00267800       0.02289100
C        7.27964000       6.77126000      13.67500000      -0.00366000      -0.00582200       0.03964100
C        7.07741000       9.22295000      13.67500000       0.00243200      -0.00211100       0.03637500
C        6.87518000      11.67464000      13.67500000      -0.08265300      -0.18046400      -0.00018300
C        9.90830000       0.81719000      13.67500000       0.01284700      -0.00563800       0.02354800
C        9.70606000       3.26887000      13.67500000       0.00218900       0.02235000       0.03941500
C        9.50398000       5.72056000      13.67500000      -0.00139200      -0.01521900       0.03444700
C        9.30175000       8.17224000      13.67500000      -0.00480500      -0.00077800       0.02520500
C       11.93040000       2.21817000      13.67500000       0.01261900      -0.04352200       0.04103200
C       11.72817000       4.66985000      13.67500000       0.01891300       0.00337700       0.03626800
C       14.15474000       1.16746000      13.67500000      -0.27949300      -0.01758600       0.21467900
C        0.00000000       0.00000000      10.32500000      -0.13984700      -0.29807200      -0.21448200
C       -5.05523000       9.45647000      10.32500000      -0.01609700       0.00418100      -0.02568600
C       -5.25746000      11.90815000      10.32500000       0.04135500      -0.05474600      -0.03583000
C       -2.62881000       5.95408000      10.32500000      -0.01798700       0.00809700      -0.00732000
C       -2.83089000       8.40576000      10.32500000      -0.00311000      -0.01426900      -0.02777500
C       -3.03312000      10.85745000      10.32500000       0.02181500       0.01406300      -0.01556600
C       -0.20223000       2.45169000      10.32500000      -0.19481800       0.26467600      -0.19064300
C       -0.40447000       4.90337000      10.32500000      -0.03192000      -0.00140400      -0.01543900
C       -0.60670000       7.35506000      10.32500000      -0.00462200       0.00624600      -0.01519900
C       -0.80893000       9.80675000      10.32500000       0.00290200       0.00901300      -0.01541400
C       -1.01102000      12.25843000      10.32500000       0.01593100       0.00652700      -0.01013700
C        2.02211000       1.40098000      10.32500000       0.32086700       0.02910100      -0.19101100
C        1.81987000       3.85267000      10.32500000       0.02046500       0.06115300      -0.04066000
C        1.61764000       6.30435000      10.32500000      -0.00991400       0.01118600      -0.02851900
C        1.41541000       8.75604000      10.32500000      -0.00398200      -0.01231400      -0.01542100
C        1.21325000      11.20760000      10.32500000      -0.00143800       0.00601900      -0.02810000
C        4.24645000       0.35028000      10.32500000      -0.00166700       0.03538000      -0.02631400
C        4.04421000       2.80196000      10.32500000       0.02098100      -0.01631600      -0.01996400
C        3.84198000       5.25365000      10.32500000       0.01930500       0.00478700      -0.01090600
C        3.63982000       7.70521000      10.32500000       0.00153300      -0.00825400      -0.01001600
C        3.43759000      10.15689000      10.32500000      -0.00526500      -0.01184700      -0.01495400
C        3.23535000      12.60858000      10.32500000       0.01547900      -0.02700000      -0.02590500
C        6.26855000       1.75126000      10.32500000       0.00967200      -0.00346900      -0.02512400
C        6.06639000       4.20282000      10.32500000      -0.00044900       0.00455100      -0.01612300
C        5.86416000       6.65450000      10.32500000      -0.00441100      -0.00734300      -0.02859200
C        5.66193000       9.10619000      10.32500000       0.01506600      -0.00245100      -0.02301100
C        5.45969000      11.55788000      10.32500000       0.02685500      -0.02341800      -0.02093700
C        8.49282000       0.70043000      10.32500000      -0.01917400      -0.00335000      -0.01039800
C        8.29073000       3.15211000      10.32500000      -0.00172000      -0.00071000      -0.01714900
C        8.08850000       5.60380000      10.32500000       0.00670100       0.00226400      -0.01658700
C        7.88627000       8.05549000      10.32500000      -0.00386400      -0.01314600      -0.01867700
C        7.68403000      10.50717000      10.32500000      -0.02205500       0.00307800      -0.02198200
C       10.51492000       2.10141000      10.32500000      -0.00831800       0.02174600      -0.01945400
C       10.31269000       4.55309000      10.32500000       0.00494800       0.01498400      -0.02755700
C       10.11061000       7.00478000      10.32500000       0.00493600      -0.00894600      -0.01117200
C       12.73926000       1.05070000      10.32500000      -0.07366800      -0.01140900      -0.03645800
C       12.53703000       3.50239000      10.32500000       0.00814400       0.01098600      -0.02672600
C       -6.67294000      11.79139000      10.32500000       0.07427400      -0.13613500      -0.03782700
C       -4.24637000       8.28900000      10.32500000      -0.01292700       0.00419000      -0.03557500
C       -4.44860000      10.74069000      10.32500000       0.00917100       0.01242100      -0.03028000
C       -1.81995000       4.78661000      10.32500000      -0.00646900      -0.00504000      -0.02945000
C       -2.02218000       7.23830000      10.32500000       0.00291900       0.01810700      -0.03467900
C       -2.22426000       9.68999000      10.32500000       0.00492000      -0.00417400      -0.03931600
C       -2.42650000      12.14167000      10.32500000      -0.00821100      -0.01836100      -0.02785100
C        0.60662000       1.28422000      10.32500000       0.00251500       0.00521700      -3.81563300
C        0.40439000       3.73591000      10.32500000       0.03270500       0.14781700      -0.04029900
C        0.20216000       6.18760000      10.32500000       0.03339300       0.01511900      -0.04204600
C       -0.00007000       8.63928000      10.32500000       0.00560100      -0.00517200      -0.02225900
C       -0.20231000      11.09097000      10.32500000       0.00932800      -0.00912300      -0.03379400
C        2.83096000       0.23352000      10.32500000       0.10236900      -0.10813600      -0.03705100
C        2.62873000       2.68520000      10.32500000       0.08395000       0.11912400      -0.03138200
C        2.42650000       5.13689000      10.32500000      -0.00015200      -0.01449300      -0.03018000
C        2.22426000       7.58858000      10.32500000      -0.01667900      -0.00627600      -0.03410200
C        2.02211000      10.04013000      10.32500000      -0.00884400       0.01328800      -0.03901800
C        1.81987000      12.49182000      10.32500000       0.01101400      -0.00087900      -0.03512300
C        4.85307000       1.63450000      10.32500000      -0.01261600       0.00969600      -0.04709900
C        4.65084000       4.08619000      10.32500000      -0.01834100       0.01255000      -0.03432100
C        4.44868000       6.53774000      10.32500000       0.00194900      -0.00042600      -0.02971200
C        4.24645000       8.98943000      10.32500000       0.00036500      -0.00443000      -0.02569000
C        4.04421000      11.44112000      10.32500000      -0.01731900       0.00557800      -0.03797200
C        7.07741000       0.58380000      10.32500000       0.00410600      -0.00426700      -0.02984800
C        6.87525000       3.03535000      10.32500000       0.00194200       0.00677200      -0.03736400
C        6.67302000       5.48704000      10.32500000      -0.00443900      -0.00450300      -0.03699100
C        6.47078000       7.93873000      10.32500000       0.01936300       0.00872800      -0.04304500
C        6.26855000      10.39041000      10.32500000       0.00228200      -0.00234600      -0.03630100
C        6.06632000      12.84210000      10.32500000      -0.15253700      -0.03254500      -0.03799600
C        9.09944000       1.98465000      10.32500000       0.01479900      -0.00280400      -0.03180500
C        8.89736000       4.43634000      10.32500000      -0.00936200       0.00448700      -0.03698600
C        8.69512000       6.88802000      10.32500000      -0.00180100       0.01135200      -0.03128000
C        8.49289000       9.33971000      10.32500000       0.01570800      -0.00148200      -0.02942800
C       11.32378000       0.93394000      10.32500000       0.00789800       0.00842200      -0.02150700
C       11.12155000       3.38563000      10.32500000      -0.01472600      -0.03766900      -0.04572000
C       10.91931000       5.83732000      10.32500000      -0.00093500      -0.00705400      -0.02956100
C       13.34589000       2.33493000      10.32500000      -0.15248400       0.00333700      -0.03690600
Li       0.60662000       1.28422000      12.00000000       0.00885400      -0.00070700       3.36636700
149
Lattice="14.963600159 0.0 0.0 -7.481800079 12.958857869 0.0 0.0 0.0 24.0" Properties=species:S:1:pos:R:3:forces:R:3 stress="-0.003716313122224284 3.2331017272075278e-06 -8.862942958754227e-07 3.2331017272075278e-06 -0.003712686805422146 -1.3606489894425502e-06 -8.862942958754227e-07 -1.3606489894425502e-06 0.002242767715712757" free_energy=-1376.25450793 energy=-1376.24862747 pbc="T T T"
C        0.00000000       0.00000000      13.68675000      -0.17984400      -0.38316600       0.34189000
C       -5.05523000       9.45647000      13.67630000       0.02617200       0.01069400       0.02841000
C       -5.25746000      11.90815000      13.67446000       0.13266300      -0.18691300       0.04530300
C       -2.62881000       5.95408000      13.67543000      -0.00623400       0.00305700       0.02559300
C       -2.83089000       8.40576000      13.67632000       0.00205300      -0.00951900       0.03241900
C       -3.03312000      10.85745000      13.67598000       0.00759600      -0.01819400       0.03086400
C       -0.20223000       2.45169000      13.68563000      -0.25312000       0.34468100       0.32462900
C       -0.40447000       4.90337000      13.67621000      -0.01890100      -0.01560300       0.02146400
C       -0.60670000       7.35506000      13.67578000       0.00995900       0.00766600       0.03159500
C       -0.80893000       9.80675000      13.67580000       0.00506200       0.00760700       0.03100200
C       -1.01102000      12.25843000      13.67550000       0.01572200      -0.01351400       0.02708500
C        2.02211000       1.40098000      13.68559000       0.41415200       0.04549700       0.32708500
C        1.81987000       3.85267000      13.67469000       0.08708900       0.20962900       0.05000200
C        1.61764000       6.30435000      13.67641000       0.01886800       0.00736600       0.03411100
C        1.41541000       8.75604000      13.67580000       0.00464900      -0.00337300       0.03099600
C        1.21325000      11.20760000      13.67635000      -0.00310000       0.00248400       0.03364900
C        4.24645000       0.35028000      13.67651000      -0.02505400       0.03597100       0.01787200
C        4.04421000       2.80196000      13.67603000      -0.00792900      -0.02272200       0.02026700
C        3.84198000       5.25365000      13.67554000      -0.00665400       0.03072300       0.02556200
C        3.63982000       7.70521000      13.67548000      -0.00173900      -0.00484600       0.02525400
C        3.43759000      10.15689000      13.67591000      -0.02504400      -0.00023300       0.03102200
C        3.23535000      12.60858000      13.67631000      -0.00489100      -0.00047500       0.02864100
C        6.26855000       1.75126000      13.67627000      -0.00075100      -0.00515700       0.03267200
C        6.06639000       4.20282000      13.67570000      -0.00163100       0.01933200       0.02802500
C        5.86416000       6.65450000      13.67636000      -0.00391600      -0.00387200       0.03339900
C        5.66193000       9.10619000      13.67614000       0.01527100       0.01149100       0.02583300
C        5.45969000      11.55788000      13.67630000       0.04171200      -0.00325100       0.02055300
C        8.49282000       0.70043000      13.67546000      -0.01811200      -0.01112900       0.02409900
C        8.29073000       3.15211000      13.67574000      -0.00421100      -0.00125900       0.02751600
C        8.08850000       5.60380000      13.67572000       0.00077800      -0.00001000       0.02771600
C        7.88627000       8.05549000      13.67569000       0.01838900      -0.01218700       0.03072900
C        7.68403000      10.50717000      13.67629000      -0.01299600       0.03168100       0.02226500
C       10.51492000       2.10141000      13.67577000      -0.01787200      -0.02000400       0.03062000
C       10.31269000       4.55309000      13.67631000      -0.01035400      -0.00411900       0.03395000
C       10.11061000       7.00478000      13.67550000       0.01086700      -0.00719700       0.02513200
C       12.73926000       1.05070000      13.67443000      -0.23357200      -0.02892900       0.04686400
C       12.53703000       3.50239000      13.67653000       0.02963600      -0.00744400       0.01792400
C       -5.86409000      10.62393000      13.67682000       0.02005000       0.04194600       0.01476000
C       -3.43751000       7.12154000      13.67639000      -0.00288800       0.00141800       0.01846900
C       -3.63975000       9.57323000      13.67699000      -0.00628000       0.02126000       0.03208700
C       -3.84198000      12.02491000      13.67657000      -0.05074200      -0.01319700       0.00874200
C       -1.01109000       3.61915000      13.67468000      -0.11136200       0.17158000       0.04347800
C       -1.21332000       6.07084000      13.67656000      -0.01342700      -0.02234100       0.01741800
C       -1.41556000       8.52252000      13.67681000       0.00803900      -0.01022900       0.02427700
C       -1.61764000      10.97421000      13.67652000      -0.00651200       0.01712200       0.01827100
C        1.41548000       0.11676000      13.68534000       0.23380800      -0.33981900       0.34180200
C        1.21325000       2.56845000      13.68531000       0.17029400       0.37592100       0.33102900
C        1.01102000       5.02013000      13.67736000       0.01262200      -0.04153400       0.02503100
C        0.80878000       7.47182000      13.67680000      -0.00709800       0.00841500       0.02530200
C        0.60655000       9.92350000      13.67681000      -0.00858700      -0.00225200       0.02427100
C        0.40439000      12.37506000      13.67643000      -0.00241300      -0.00016200       0.01935900
C        3.43759000       1.51774000      13.67510000       0.20786900       0.03325900       0.04254700
C        3.23535000       3.96943000      13.67649000      -0.05248000      -0.00196300       0.00971500
C        3.03312000       6.42111000      13.67634000      -0.00377500      -0.01039900       0.01888500
C        2.83096000       8.87267000      13.67653000       0.00958400       0.00880200       0.01728000
C        2.62873000      11.32436000      13.67707000       0.01526800      -0.01978500       0.03356400
C        5.66193000       0.46704000      13.67674000      -0.01187000       0.01159800       0.02422100
C        5.45969000       2.91872000      13.67695000       0.00888200      -0.02323700       0.02185300
C        5.25754000       5.37028000      13.67665000       0.01994700       0.00163600       0.02233900
C        5.05530000       7.82197000      13.67667000      -0.00236700       0.00848400       0.02467900
C        4.85307000      10.27365000      13.67633000       0.00980200       0.00270800       0.01816400
C        4.65084000      12.72534000      13.67683000       0.02022600       0.03838400       0.01482600
C        7.68411000       1.86789000      13.67662000      -0.01267400       0.00868100       0.02056800
C        7.48187000       4.31958000      13.67610000      -0.00389900       0.00255000       0.01777900
C        7.27964000       6.77126000      13.67691000      -0.00637000      -0.00067100       0.02150800
C        7.07741000       9.22295000      13.67675000       0.00470600      -0.00216700       0.01990300
C        6.87518000      11.67464000      13.67499000      -0.08972900      -0.19562100       0.05313200
C        9.90830000       0.81719000      13.67614000       0.01389400      -0.00489200       0.01691300
C        9.70606000       3.26887000      13.67690000       0.00744600       0.02431100       0.02249200
C        9.50398000       5.72056000      13.67666000      -0.00119300      -0.01532800       0.02133100
C        9.30175000       8.17224000      13.67622000      -0.00726500      -0.00217600       0.01824200
C       11.93040000       2.21817000      13.67698000       0.01190500      -0.04776300       0.01213200
C       11.72817000       4.66985000      13.67675000       0.02017800       0.00026500       0.02424700
C       14.15474000       1.16746000      13.68536000      -0.40388500      -0.03060000       0.34088000
C        0.00000000       0.00000000      10.31465000      -0.04790600      -0.10262300      -1.03358500
C       -5.05523000       9.45647000      10.32376000      -0.01119100       0.00473800      -0.02550400
C       -5.25746000      11.90815000      10.32327000       0.03566600      -0.04504300      -0.10091600
C       -2.62881000       5.95408000      10.32465000      -0.01697600       0.00821900      -0.03825000
C       -2.83089000       8.40576000      10.32366000      -0.00213900      -0.00864900      -0.03243800
C       -3.03312000      10.85745000      10.32425000       0.01955500       0.01155200      -0.02873700
C       -0.20223000       2.45169000      10.31580000      -0.07536500       0.09551800      -1.02175100
C       -0.40447000       4.90337000      10.32426000      -0.02361800       0.00493500       0.05779000
C       -0.60670000       7.35506000      10.32427000      -0.00326600       0.00451000      -0.03330800
C       -0.80893000       9.80675000      10.32426000       0.00240700       0.00762800      -0.02739300
C       -1.01102000      12.25843000      10.32451000       0.01548200       0.00656700      -0.03094900
C        2.02211000       1.40098000      10.31579000       0.10773500       0.01883300      -1.01980100
C        1.81987000       3.85267000      10.32304000       0.01372900       0.05392800      -0.09579000
C        1.61764000       6.30435000      10.32362000      -0.01100800       0.00959800      -0.03194700
C        1.41541000       8.75604000      10.32426000      -0.00344600      -0.00957400      -0.02740700
C        1.21325000      11.20760000      10.32364000       0.00017600       0.00196500      -0.03327100
C        4.24645000       0.35028000      10.32373000       0.00173100       0.02595500       0.05997500
C        4.04421000       2.80196000      10.32404000       0.02139600      -0.00390400       0.05775000
C        3.84198000       5.25365000      10.32447000       0.01659900       0.00596500      -0.02525600
C        3.63982000       7.70521000      10.32452000       0.00047600      -0.00978200      -0.02415600
C        3.43759000      10.15689000      10.32428000      -0.00483900      -0.01164000      -0.03600700
C        3.23535000      12.60858000      10.32375000       0.01251200      -0.02544000      -0.02507700
C        6.26855000       1.75126000      10.32379000       0.00707200      -0.00181100      -0.04657200
C        6.06639000       4.20282000      10.32422000      -0.00123800       0.00305200      -0.03676300
C        5.86416000       6.65450000      10.32362000      -0.00092000      -0.00631600      -0.03168100
C        5.66193000       9.10619000      10.32389000       0.01445400      -0.00392900      -0.04111500
C        5.45969000      11.55788000      10.32399000       0.01976200      -0.02033400       0.05709400
C        8.49282000       0.70043000      10.32450000      -0.01735600      -0.00374800      -0.02532300
C        8.29073000       3.15211000      10.32417000      -0.00002400      -0.00061200      -0.02904000
C        8.08850000       5.60380000      10.32420000       0.00521100       0.00358500      -0.03173600
C        7.88627000       8.05549000      10.32410000      -0.00181700      -0.01546600      -0.03619000
C        7.68403000      10.50717000      10.32394000      -0.00943900       0.00213800       0.05875100
C       10.51492000       2.10141000      10.32406000      -0.01050500       0.01851200      -0.02918700
C       10.31269000       4.55309000      10.32367000       0.00331800       0.01075700      -0.03939200
C       10.11061000       7.00478000      10.32446000       0.00544900      -0.00921000      -0.02453900
C       12.73926000       1.05070000      10.32324000      -0.06316000      -0.01571700      -0.09923800
C       12.53703000       3.50239000      10.32371000      -0.00234000       0.00587600       0.05991300
C       -6.67294000      11.79139000      10.32318000       0.06290600      -0.13730000      -0.01319000
C       -4.24637000       8.28900000      10.32328000      -0.01050700       0.00609200      -0.02361600
C       -4.44860000      10.74069000      10.32354000       0.01406100       0.01176800      -0.02617500
C       -1.81995000       4.78661000      10.32358000      -0.00502600      -0.00535200      -0.03195000
C       -2.02218000       7.23830000      10.32333000       0.00338600       0.01618600      -0.01926400
C       -2.22426000       9.68999000      10.32310000      -0.00192300      -0.00563100      -0.02096500
C       -2.42650000      12.14167000      10.32366000      -0.00618900      -0.01569300      -0.01047800
C        0.60662000       1.28422000      10.14092000       0.00139400      -0.00292100       1.56591900
C        0.40439000       3.73591000      10.32306000       0.02103000       0.14925600      -0.00265900
C        0.20216000       6.18760000      10.32297000       0.03195800       0.01054700      -0.01475400
C       -0.00007000       8.63928000      10.32393000       0.00517900      -0.00388100      -0.01781300
C       -0.20231000      11.09097000      10.32337000       0.01044200      -0.00941500      -0.02135800
C        2.83096000       0.23352000      10.32321000       0.10443900      -0.10204800      -0.00517000
C        2.62873000       2.68520000      10.32349000       0.08909000       0.11015100      -0.00113500
C        2.42650000       5.13689000      10.32354000       0.00087000      -0.01351100      -0.03204200
C        2.22426000       7.58858000      10.32335000      -0.01470400      -0.00655000      -0.02080300
C        2.02211000      10.04013000      10.32312000      -0.00706200       0.01707700      -0.02153400
C        1.81987000      12.49182000      10.32331000       0.01115300       0.00083700      -0.02492700