149
Lattice="14.963600159 0.0 0.0 -7.481800079 12.958857869 0.0 0.0 0.0 24.0" Properties=species:S:1:pos:R:3:forces:R:3 stress="-0.0032681290764219845 2.3842564860874046e-06 -0.0 2.3842564860874046e-06 -0.003265863408609289 -0.0 -0.0 -0.0 -8.333038833966738e-05" free_energy=-1375.74625244 energy=-1375.7414917 pbc="T T T"
C        0.00000000       0.00000000      13.67500000      -0.11723800      -0.24876600       0.30918700
C       -5.05523000       9.45647000      13.67500000       0.01831800       0.01703300       0.07833600
C       -5.25746000      11.90815000      13.67500000       0.11051800      -0.15441700       0.03697700
C       -2.62881000       5.95408000      13.67500000      -0.00663600       0.00338200       0.06173700
C       -2.83089000       8.40576000      13.67500000      -0.00287900      -0.01145500       0.07854800
C       -3.03312000      10.85745000      13.67500000       0.00157900      -0.01252900       0.07146700
C       -0.20223000       2.45169000      13.67500000      -0.16096900       0.22066700       0.28599000
C       -0.40447000       4.90337000      13.67500000      -0.01916600      -0.02039500       0.07725600
C       -0.60670000       7.35506000      13.67500000       0.00464500       0.00717300       0.06763200
C       -0.80893000       9.80675000      13.67500000       0.00504900       0.00934200       0.06823200
C       -1.01102000      12.25843000      13.67500000       0.01580800      -0.00904400       0.06164800
C        2.02211000       1.40098000      13.67500000       0.26586900       0.02644600       0.28519800
C        1.81987000       3.85267000      13.67500000       0.07015600       0.17444600       0.04172000
C        1.61764000       6.30435000      13.67500000       0.01935800       0.00233100       0.08036100
C        1.41541000       8.75604000      13.67500000       0.00428500      -0.00749600       0.06824500
C        1.21325000      11.20760000      13.67500000      -0.00363800       0.00662800       0.07968600
C        4.24645000       0.35028000      13.67500000      -0.02889100       0.03733200       0.08349100
C        4.04421000       2.80196000      13.67500000      -0.00944200      -0.02535100       0.07332000
C        3.84198000       5.25365000      13.67500000      -0.00818600       0.02309600       0.06264600
C        3.63982000       7.70521000      13.67500000      -0.00107100      -0.00860800       0.06111000
C        3.43759000      10.15689000      13.67500000      -0.02018800      -0.00014600       0.07020800
C        3.23535000      12.60858000      13.67500000       0.00348300       0.00106600       0.07823100
C        6.26855000       1.75126000      13.67500000       0.00229100      -0.00827700       0.07911900
C        6.06639000       4.20282000      13.67500000      -0.00233300       0.01783700       0.06580400
C        5.86416000       6.65450000      13.67500000      -0.00944500      -0.00564300       0.07959600
C        5.66193000       9.10619000      13.67500000       0.01501400       0.01382000       0.07650200
C        5.45969000      11.55788000      13.67500000       0.04017500      -0.00202400       0.07928900
C        8.49282000       0.70043000      13.67500000      -0.01514600      -0.00841000       0.06074600
C        8.29073000       3.15211000      13.67500000      -0.00411100      -0.00201000       0.06688500
C        8.08850000       5.60380000      13.67500000       0.00193900      -0.00098900       0.06721900
C        7.88627000       8.05549000      13.67500000       0.01607500      -0.00951800       0.06555100
C        7.68403000      10.50717000      13.67500000      -0.01563700       0.03125100       0.07883200
C       10.51492000       2.10141000      13.67500000      -0.01044800      -0.01735500       0.06745400
C       10.31269000       4.55309000      13.67500000      -0.00546500       0.00085300       0.07849400
C       10.11061000       7.00478000      13.67500000       0.01032000      -0.00545100       0.06182300
C       12.73926000       1.05070000      13.67500000      -0.19459100      -0.02576400       0.03637100
C       12.53703000       3.50239000      13.67500000       0.03345800      -0.00828900       0.08365100
C       -5.86409000      10.62393000      13.67500000       0.02053300       0.02926000       0.07724900
C       -3.43751000       7.12154000      13.67500000      -0.00355900       0.00468400       0.06697100
C       -3.63975000       9.57323000      13.67500000      -0.00362500       0.02073700       0.08107500
C       -3.84198000      12.02491000      13.67500000      -0.03825100      -0.01578000       0.07192700
C       -1.01109000       3.61915000      13.67500000      -0.10274300       0.16143100       0.02948100
C       -1.21332000       6.07084000      13.67500000      -0.01127900      -0.01590300       0.07095700
C       -1.41556000       8.52252000      13.67500000       0.00886100      -0.00813300       0.07584600
C       -1.61764000      10.97421000      13.67500000      -0.00513600       0.01106500       0.06904800
C        1.41548000       0.11676000      13.67500000       0.16224700      -0.22522700       0.28452100
C        1.21325000       2.56845000      13.67500000       0.11506000       0.25076100       0.28381800
C        1.01102000       5.02013000      13.67500000       0.00824300      -0.03236800       0.08823900
C        0.80878000       7.47182000      13.67500000      -0.00763100       0.01099900       0.07476500
C        0.60655000       9.92350000      13.67500000      -0.00677000      -0.00328600       0.07617800
C        0.40439000      12.37506000      13.67500000      -0.00142600      -0.00106000       0.06805000
C        3.43759000       1.51774000      13.67500000       0.19308300       0.03040700       0.03824700
C        3.23535000       3.96943000      13.67500000      -0.04131000       0.00383600       0.07041000
C        3.03312000       6.42111000      13.67500000      -0.00353300      -0.00693700       0.06757900
C        2.83096000       8.87267000      13.67500000       0.00699000       0.01204000       0.07013800
C        2.62873000      11.32436000      13.67500000       0.01421900      -0.02114600       0.08046700
C        5.66193000       0.46704000      13.67500000      -0.00537800       0.00740800       0.07474600
C        5.45969000       2.91872000      13.67500000       0.01624900      -0.01592400       0.07880000
C        5.25754000       5.37028000      13.67500000       0.02191300       0.00387800       0.07234000
C        5.05530000       7.82197000      13.67500000      -0.00368400       0.00700100       0.07282700
C        4.85307000      10.27365000      13.67500000       0.00545900      -0.00256200       0.06607200
C        4.65084000      12.72534000      13.67500000       0.01033700       0.02945200       0.07741200
C        7.68411000       1.86789000      13.67500000      -0.01164300       0.00839400       0.07180200
C        7.48187000       4.31958000      13.67500000      -0.00242500       0.00226900       0.06141600
C        7.27964000       6.77126000      13.67500000      -0.00456300      -0.00654300       0.07814500
C        7.07741000       9.22295000      13.67500000       0.00108900      -0.00453100       0.07473900
C        6.87518000      11.67464000      13.67500000      -0.08542100      -0.18313200       0.03592200
C        9.90830000       0.81719000      13.67500000       0.00860500      -0.00653400       0.06341600
C        9.70606000       3.26887000      13.67500000      -0.00081100       0.02481300       0.07753600
C        9.50398000       5.72056000      13.67500000      -0.00152900      -0.01408700       0.07294200
C        9.30175000       8.17224000      13.67500000      -0.00547500      -0.00457600       0.06334700
C       11.93040000       2.21817000      13.67500000       0.00586700      -0.03855900       0.08051800
C       11.72817000       4.66985000      13.67500000       0.01748600       0.00575600       0.07463200
C       14.15474000       1.16746000      13.67500000      -0.27690600      -0.01818600       0.28480600
C        0.00000000       0.00000000      10.32500000      -0.11723800      -0.24876600      -0.30918700
C       -5.05523000       9.45647000      10.32500000       0.01831800       0.01703300      -0.07833600
C       -5.25746000      11.90815000      10.32500000       0.11051800      -0.15441700      -0.03697700
C       -2.62881000       5.95408000      10.32500000      -0.00663600       0.00338200      -0.06173700
C       -2.83089000       8.40576000      10.32500000      -0.00287900      -0.01145500      -0.07854800
C       -3.03312000      10.85745000      10.32500000       0.00157900      -0.01252900      -0.07146700
C       -0.20223000       2.45169000      10.32500000      -0.16096900       0.22066700      -0.28599000
C       -0.40447000       4.90337000      10.32500000      -0.01916600      -0.02039500      -0.07725600
C       -0.60670000       7.35506000      10.32500000       0.00464500       0.00717300      -0.06763200
C       -0.80893000       9.80675000      10.32500000       0.00504900       0.00934200      -0.06823200
C       -1.01102000      12.25843000      10.32500000       0.01580800      -0.00904400      -0.06164800
C        2.02211000       1.40098000      10.32500000       0.26586900       0.02644600      -0.28519800
C        1.81987000       3.85267000      10.32500000       0.07015600       0.17444600      -0.04172000
C        1.61764000       6.30435000      10.32500000       0.01935800       0.00233100      -0.08036100
C        1.41541000       8.75604000      10.32500000       0.00428500      -0.00749600      -0.06824500
C        1.21325000      11.20760000      10.32500000      -0.00363800       0.00662800      -0.07968600
C        4.24645000       0.35028000      10.32500000      -0.02889100       0.03733200      -0.08349100
C        4.04421000       2.80196000      10.32500000      -0.00944200      -0.02535100      -0.07332000
C        3.84198000       5.25365000      10.32500000      -0.00818600       0.02309600      -0.06264600
C        3.63982000       7.70521000      10.32500000      -0.00107100      -0.00860800      -0.06111000
C        3.43759000      10.15689000      10.32500000      -0.02018800      -0.00014600      -0.07020800
C        3.23535000      12.60858000      10.32500000       0.00348300       0.00106600      -0.07823100
C        6.26855000       1.75126000      10.32500000       0.00229100      -0.00827700      -0.07911900
C        6.06639000       4.20282000      10.32500000      -0.00233300       0.01783700      -0.06580400
C        5.86416000       6.65450000      10.32500000      -0.00944500      -0.00564300      -0.07959600
C        5.66193000       9.10619000      10.32500000       0.01501400       0.01382000      -0.07650200
C        5.45969000      11.55788000      10.32500000       0.04017500      -0.00202400      -0.07928900
C        8.49282000       0.70043000      10.32500000      -0.01514600      -0.00841000      -0.06074600
C        8.29073000       3.15211000      10.32500000      -0.00411100      -0.00201000      -0.06688500
C        8.08850000       5.60380000      10.32500000       0.00193900      -0.00098900      -0.06721900
C        7.88627000       8.05549000      10.32500000       0.01607500      -0.00951800      -0.06555100
C        7.68403000      10.50717000      10.32500000      -0.01563700       0.03125100      -0.07883200
C       10.51492000       2.10141000      10.32500000      -0.01044800      -0.01735500      -0.06745400
C       10.31269000       4.55309000      10.32500000      -0.00546500       0.00085300      -0.07849400
C       10.11061000       7.00478000      10.32500000       0.01032000      -0.00545100      -0.06182300
C       12.73926000       1.05070000      10.32500000      -0.19459100      -0.02576400      -0.03637100
C       12.53703000       3.50239000      10.32500000       0.03345800      -0.00828900      -0.08365100
C       -5.86409000      10.62393000      10.32500000       0.02053300       0.02926000      -0.07724900
C       -3.43751000       7.12154000      10.32500000      -0.00355900       0.00468400      -0.06697100
C       -3.63975000       9.57323000      10.32500000      -0.00362500       0.02073700      -0.08107500
C       -3.84198000      12.02491000      10.32500000      -0.03825100      -0.01578000      -0.07192700
C       -1.01109000       3.61915000      10.32500000      -0.10274300       0.16143100      -0.02948100
C       -1.21332000       6.07084000      10.32500000      -0.01127900      -0.01590300      -0.07095700
C       -1.41556000       8.52252000      10.32500000       0.00886100      -0.00813300      -0.07584600
C       -1.61764000      10.97421000      10.32500000      -0.00513600       0.01106500      -0.06904800
C        1.41548000       0.11676000      10.32500000       0.16224700      -0.22522700      -0.28452100
C        1.21325000       2.56845000      10.32500000       0.11506000       0.25076100      -0.28381800
C        1.01102000       5.02013000      10.32500000       0.00824300      -0.03236800      -0.08823900
C        0.80878000       7.47182000      10.32500000      -0.00763100       0.01099900      -0.07476500
C        0.60655000       9.92350000      10.32500000      -0.00677000      -0.00328600      -0.07617800
C        0.40439000      12.37506000      10.32500000      -0.00142600      -0.00106000      -0.06805000
C        3.43759000       1.51774000      10.32500000       0.19308300       0.03040700      -0.03824700
C        3.23535000       3.96943000      10.32500000      -0.04131000       0.00383600      -0.07041000
C        3.03312000       6.42111000      10.32500000      -0.00353300      -0.00693700      -0.06757900
C        2.83096000       8.87267000      10.32500000       0.00699000       0.01204000      -0.07013800
C        2.62873000      11.32436000      10.32500000       0.01421900      -0.02114600      -0.08046700
C        5.66193000       0.46704000      10.32500000      -0.00537800       0.00740800      -0.07474600
C        5.45969000       2.91872000      10.32500000       0.01624900      -0.01592400      -0.07880000
C        5.25754000       5.37028000      10.32500000       0.02191300       0.00387800      -0.07234000
C        5.05530000       7.82197000      10.32500000      -0.00368400       0.00700100      -0.07282700
C        4.85307000      10.27365000      10.32500000       0.00545900      -0.00256200      -0.06607200
C        4.65084000      12.72534000      10.32500000       0.01033700       0.02945200      -0.07741200
C        7.68411000       1.86789000      10.32500000      -0.01164300       0.00839400      -0.07180200
C        7.48187000       4.31958000      10.32500000      -0.00242500       0.00226900      -0.06141600
C        7.27964000       6.77126000      10.32500000      -0.00456300      -0.00654300      -0.07814500
C        7.07741000       9.22295000      10.32500000       0.00108900      -0.00453100      -0.07473900
C        6.87518000      11.67464000      10.32500000      -0.08542100      -0.18313200      -0.03592200
C        9.90830000       0.81719000      10.32500000       0.00860500      -0.00653400      -0.06341600
C        9.70606000       3.26887000      10.32500000      -0.00081100       0.02481300      -0.07753600
C        9.50398000       5.72056000      10.32500000      -0.00152900      -0.01408700      -0.07294200
C        9.30175000       8.17224000      10.32500000      -0.00547500      -0.00457600      -0.06334700
C       11.93040000       2.21817000      10.32500000       0.00586700      -0.03855900      -0.08051800
C       11.72817000       4.66985000      10.32500000       0.01748600       0.00575600      -0.07463200
C       14.15474000       1.16746000      10.32500000      -0.27690600      -0.01818600      -0.28480600
Li       0.60662000       1.28422000      12.00000000       0.00799200      -0.00096200       0.00000000
149
Lattice="14.963600159 0.0 0.0 -7.481800079 12.958857869 0.0 0.0 0.0 24.0" Properties=species:S:1:pos:R:3:forces:R:3 stress="-0.0032744704496938818 -1.9411093381496933e-06 -0.0 -1.9411093381496933e-06 -0.003265039529404672 -0.0 -0.0 -0.0 0.00014147004584726995" free_energy=-1375.82212239 energy=-1375.81737438 pbc="T T T"
C        0.00000000       0.00000000      13.68992000      -0.11398600      -0.24188500       0.24533500
C       -5.05523000       9.45647000      13.67878000       0.01872400       0.02104200       0.06962200
C       -5.25746000      11.90815000      13.67678000       0.10956700      -0.15077300       0.10376900
C       -2.62881000       5.95408000      13.67798000      -0.00800300      -0.00063300       0.06617900
C       -2.83089000       8.40576000      13.67879000      -0.00769400      -0.00868700       0.07367600
C       -3.03312000      10.85745000      13.67845000       0.00456400      -0.01228500       0.07257900
C       -0.20223000       2.45169000      13.68880000      -0.16127100       0.21252000       0.22487600
C       -0.40447000       4.90337000      13.67873000      -0.01850400      -0.01752600       0.06026500
C       -0.60670000       7.35506000      13.67826000       0.01123300       0.00533900       0.07415300
C       -0.80893000       9.80675000      13.67829000       0.00019800       0.00448600       0.07347600
C       -1.01102000      12.25843000      13.67797000       0.01339700      -0.00618300       0.06716300
C        2.02211000       1.40098000      13.68876000       0.25563700       0.02857700       0.22715800
C        1.81987000       3.85267000      13.67701000       0.06787100       0.17551000       0.10183600
C        1.61764000       6.30435000      13.67888000       0.01893800      -0.00362100       0.07465600
C        1.41541000       8.75604000      13.67829000       0.00256100      -0.00118900       0.07347800
C        1.21325000      11.20760000      13.67884000       0.00170400       0.00916600       0.07451100
C        4.24645000       0.35028000      13.67903000      -0.03108900       0.03985800       0.05823500
C        4.04421000       2.80196000      13.67854000      -0.00833900      -0.02322500       0.06092500
C        3.84198000       5.25365000      13.67802000      -0.00984300       0.02341500       0.06573200
C        3.63982000       7.70521000      13.67795000       0.00310200      -0.00791600       0.06566000
C        3.43759000      10.15689000      13.67839000      -0.02142500      -0.00294400       0.07312400
C        3.23535000      12.60858000      13.67877000       0.00699900      -0.00167800       0.06948500
C        6.26855000       1.75126000      13.67882000      -0.00230000      -0.00852200       0.07504500
C        6.06639000       4.20282000      13.67817000      -0.00162800       0.01408500       0.07151000
C        5.86416000       6.65450000      13.67884000      -0.00737100      -0.00196400       0.07513500
C        5.66193000       9.10619000      13.67869000       0.01885000       0.01460400       0.06816700
C        5.45969000      11.55788000      13.67883000       0.04360800      -0.00946800       0.05841900
C        8.49282000       0.70043000      13.67793000      -0.01488700      -0.01019500       0.06462100
C        8.29073000       3.15211000      13.67823000      -0.00127100       0.00022300       0.07073700
C        8.08850000       5.60380000      13.67824000      -0.00160300       0.00014500       0.07139000
C        7.88627000       8.05549000      13.67816000       0.01746900      -0.01135800       0.07174800
C        7.68403000      10.50717000      13.67880000      -0.01051200       0.03041500       0.06053600
C       10.51492000       2.10141000      13.67825000      -0.01269200      -0.01777700       0.07146000
C       10.31269000       4.55309000      13.67879000      -0.00331400      -0.00304200       0.07594300
C       10.11061000       7.00478000      13.67798000       0.01151800      -0.00423500       0.06522100
C       12.73926000       1.05070000      13.67675000      -0.19480200      -0.02846300       0.10546100
C       12.53703000       3.50239000      13.67904000       0.03170800      -0.01192900       0.05825100
C       -5.86409000      10.62393000      13.67873000       0.02098100       0.03071700       0.06025000
C       -3.43751000       7.12154000      13.67823000      -0.00656700       0.00598400       0.06499400
C       -3.63975000       9.57323000      13.67891000      -0.00461500       0.01043400       0.07857500
C       -3.84198000      12.02491000      13.67847000      -0.04042100      -0.01851900       0.05288800
C       -1.01109000       3.61915000      13.67642000      -0.10165100       0.16103100       0.09916100
C       -1.21332000       6.07084000      13.67842000      -0.01668100      -0.01858100       0.06271800
C       -1.41556000       8.52252000      13.67866000       0.00879100      -0.01604200       0.07054600
C       -1.61764000      10.97421000      13.67833000      -0.00468500       0.01693500       0.06300800
C        1.41548000       0.11676000      13.68873000       0.15712100      -0.22563500       0.24145500
C        1.21325000       2.56845000      13.68869000       0.10921800       0.25059700       0.22758500
C        1.01102000       5.02013000      13.67926000       0.01754100      -0.02761800       0.06868600
C        0.80878000       7.47182000      13.67861000       0.00011900       0.01443800       0.07305800
C        0.60655000       9.92350000      13.67868000      -0.00985600      -0.00392000       0.07181900
C        0.40439000      12.37506000      13.67828000       0.00100000       0.00076000       0.06557800
C        3.43759000       1.51774000      13.67685000       0.19486500       0.03432600       0.10060000
C        3.23535000       3.96943000      13.67840000      -0.03643100       0.00466500       0.05320500
C        3.03312000       6.42111000      13.67826000      -0.00315700      -0.01039000       0.06549200
C        2.83096000       8.87267000      13.67838000       0.01202800       0.00854600       0.06221600
C        2.62873000      11.32436000      13.67888000       0.00566800      -0.01547700       0.07947100
C        5.66193000       0.46704000      13.67861000      -0.00586600       0.00972200       0.07176100
C        5.45969000       2.91872000      13.67880000       0.00341700      -0.02341200       0.06391700
C        5.25754000       5.37028000      13.67849000       0.02324600      -0.00148700       0.06897600
C        5.05530000       7.82197000      13.67851000      -0.00143200       0.00587200       0.07063900
C        4.85307000      10.27365000      13.67819000       0.00468200       0.00020300       0.06517900
C        4.65084000      12.72534000      13.67873000       0.01142600       0.02758500       0.06025400
C        7.68411000       1.86789000      13.67846000      -0.00739500       0.01184700       0.06744500
C        7.48187000       4.31958000      13.67796000      -0.00811200       0.00593700       0.05654100
C        7.27964000       6.77126000      13.67877000      -0.00454400       0.00823400       0.06375200
C        7.07741000       9.22295000      13.67861000      -0.00030100      -0.00698500       0.06871300
C        6.87518000      11.67464000      13.67673000      -0.08724600      -0.18186300       0.11116500
C        9.90830000       0.81719000      13.67806000       0.01014800      -0.00174500       0.06439500
C        9.70606000       3.26887000      13.67874000       0.01088900       0.01803700       0.06616000
C        9.50398000       5.72056000      13.67852000      -0.00657600      -0.01272700       0.06827900
C        9.30175000       8.17224000      13.67806000      -0.01049300      -0.00612500       0.06538000
C       11.93040000       2.21817000      13.67888000       0.00438400      -0.03606600       0.05830700
C       11.72817000       4.66985000      13.67860000       0.01550800       0.00376200       0.07161100
C       14.15474000       1.16746000      13.68874000      -0.26432200      -0.01595600       0.24123700
C        0.00000000       0.00000000      10.31008000      -0.11398600      -0.24188500      -0.24533500
C       -5.05523000       9.45647000      10.32122000       0.01872400       0.02104200      -0.06962200
C       -5.25746000      11.90815000      10.32322000       0.10956700      -0.15077300      -0.10376900
C       -2.62881000       5.95408000      10.32202000      -0.00800300      -0.00063300      -0.06617900
C       -2.83089000       8.40576000      10.32121000      -0.00769400      -0.00868700      -0.07367600
C       -3.03312000      10.85745000      10.32155000       0.00456400      -0.01228500      -0.07257900
C       -0.20223000       2.45169000      10.31120000      -0.16127100       0.21252000      -0.22487600
C       -0.40447000       4.90337000      10.32127000      -0.01850400      -0.01752600      -0.06026500
C       -0.60670000       7.35506000      10.32174000       0.01123300       0.00533900      -0.07415300
C       -0.80893000       9.80675000      10.32171000       0.00019800       0.00448600      -0.07347600
C       -1.01102000      12.25843000      10.32203000       0.01339700      -0.00618300      -0.06716300
C        2.02211000       1.40098000      10.31124000       0.25563700       0.02857700      -0.22715800
C        1.81987000       3.85267000      10.32299000       0.06787100       0.17551000      -0.10183600
C        1.61764000       6.30435000      10.32112000       0.01893800      -0.00362100      -0.07465600
C        1.41541000       8.75604000      10.32171000       0.00256100      -0.00118900      -0.07347800
C        1.21325000      11.20760000      10.32116000       0.00170400       0.00916600      -0.07451100
C        4.24645000       0.35028000      10.32097000      -0.03108900       0.03985800      -0.05823500
C        4.04421000       2.80196000      10.32146000      -0.00833900      -0.02322500      -0.06092500
C        3.84198000       5.25365000      10.32198000      -0.00984300       0.02341500      -0.06573200
C        3.63982000       7.70521000      10.32205000       0.00310200      -0.00791600      -0.06566000
C        3.43759000      10.15689000      10.32161000      -0.02142500      -0.00294400      -0.07312400
C        3.23535000      12.60858000      10.32123000       0.00699900      -0.00167800      -0.06948500
C        6.26855000       1.75126000      10.32118000      -0.00230000      -0.00852200      -0.07504500
C        6.06639000       4.20282000      10.32183000      -0.00162800       0.01408500      -0.07151000
C        5.86416000       6.65450000      10.32116000      -0.00737100      -0.00196400      -0.07513500
C        5.66193000       9.10619000      10.32131000       0.01885000       0.01460400      -0.06816700
C        5.45969000      11.55788000      10.32117000       0.04360800      -0.00946800      -0.05841900
C        8.49282000       0.70043000      10.32207000      -0.01488700      -0.01019500      -0.06462100
C        8.29073000       3.15211000      10.32177000      -0.00127100       0.00022300      -0.07073700
C        8.08850000       5.60380000      10.32176000      -0.00160300       0.00014500      -0.07139000
C        7.88627000       8.05549000      10.32184000       0.01746900      -0.01135800      -0.07174800
C        7.68403000      10.50717000      10.32120000      -0.01051200       0.03041500      -0.06053600
C       10.51492000       2.10141000      10.32175000      -0.01269200      -0.01777700      -0.07146000
C       10.31269000       4.55309000      10.32121000      -0.00331400      -0.00304200      -0.07594300
C       10.11061000       7.00478000      10.32202000       0.01151800      -0.00423500      -0.06522100
C       12.73926000       1.05070000      10.32325000      -0.19480200      -0.02846300      -0.10546100
C       12.53703000       3.50239000      10.32096000       0.03170800      -0.01192900      -0.05825100
C       -5.86409000      10.62393000      10.32127000       0.02098100       0.03071700      -0.06025000
C       -3.43751000       7.12154000      10.32177000      -0.00656700       0.00598400      -0.06499400
C       -3.63975000       9.57323000      10.32109000      -0.00461500       0.01043400      -0.07857500
C       -3.84198000      12.02491000      10.32153000      -0.04042100      -0.01851900      -0.05288800
C       -1.01109000       3.61915000      10.32358000      -0.10165100       0.16103100      -0.09916100
C       -1.21332000       6.07084000      10.32158000      -0.01668100      -0.01858100      -0.06271800
C       -1.41556000       8.52252000      10.32134000       0.00879100      -0.01604200      -0.07054600
C       -1.61764000      10.97421000      10.32167000      -0.00468500       0.01693500      -0.06300800
C        1.41548000       0.11676000      10.31127000       0.15712100      -0.22563500      -0.24145500
C        1.21325000       2.56845000      10.31131000       0.10921800       0.25059700      -0.22758500
C        1.01102000       5.02013000      10.32074000       0.01754100      -0.02761800      -0.06868600
C        0.80878000       7.47182000      10.32139000       0.00011900       0.01443800      -0.07305800
C        0.60655000       9.92350000      10.32132000      -0.00985600      -0.00392000      -0.07181900
C        0.40439000      12.37506000      10.32172000       0.00100000       0.00076000      -0.06557800
C        3.43759000       1.51774000      10.32315000       0.19486500       0.03432600      -0.10060000
C        3.23535000       3.96943000      10.32160000      -0.03643100       0.00466500      -0.05320500
C        3.03312000       6.42111000      10.32174000      -0.00315700      -0.01039000      -0.06549200
C        2.83096000       8.87267000      10.32162000       0.01202800       0.00854600      -0.06221600
C        2.62873000      11.32436000      10.32112000       0.00566800      -0.01547700      -0.07947100