157
Lattice="15.362700462 0.0 0.0 -7.681350231 13.304488871 0.0 0.0 0.0 24.0" Properties=species:S:1:pos:R:3:forces:R:3 stress="-0.0036977758401204102 6.990490220989249e-07 -0.0 6.990490220989249e-07 -0.0036962966024575755 -0.0 -0.0 -0.0 0.00461354878359738" free_energy=-1450.96191608 energy=-1450.95610581 pbc="T T T"
C        0.00000000       0.00000000      13.87500000      -0.05105800      -0.18290700      -0.02476400
C       -4.13610000       7.84619000      13.87500000      -0.01049600       0.00814000       0.00599400
C       -4.72703000      10.23421000      13.87500000      -0.00588500       0.00700600      -0.00914700
C       -5.31780000      12.62223000      13.87500000       0.01389700       0.01914700       0.00517300
C       -0.59093000       2.38802000      13.87500000      -0.18652600      -0.04280500       0.05811100
C       -1.18178000       4.77591000      13.87500000      -0.12047700       0.11959000      -0.03261800
C       -1.77255000       7.16394000      13.87500000      -0.02208300      -0.00189400      -0.00460700
C       -2.36347000       9.55196000      13.87500000      -0.00167300      -0.00468400       0.00059700
C       -2.95440000      11.93998000      13.87500000      -0.02540900       0.00498000      -0.00479100
C        1.77263000       1.70577000      13.87500000       0.13230500      -0.13348400       0.05723800
C        1.18178000       4.09366000      13.87500000       0.03921000       0.18428100       0.05161900
C        0.59085000       6.48168000      13.87500000       0.01645300      -0.01028800       0.00818600
C       -0.00008000       8.86970000      13.87500000      -0.00424000      -0.00463000      -0.00044200
C       -0.59077000      11.25759000      13.87500000      -0.00811500       0.00234800      -0.00489500
C        4.13610000       1.02338000      13.87500000      -0.02958000       0.00689200      -0.00238600
C        3.54517000       3.41140000      13.87500000       0.18173300       0.03038000      -0.03317300
C        2.95440000       5.79943000      13.87500000      -0.02783300      -0.01084400       0.01401700
C        2.36355000       8.18732000      13.87500000      -0.00722500      -0.00806200      -0.00559100
C        1.77263000      10.57534000      13.87500000      -0.00168800      -0.00533400       0.00054900
C        1.18170000      12.96336000      13.87500000       0.00780700       0.00559600       0.00640900
C        6.49965000       0.34113000      13.87500000      -0.00161900       0.01469200       0.00626400
C        5.90873000       2.72915000      13.87500000       0.00383100       0.02733900      -0.00041200
C        5.31780000       5.11717000      13.87500000       0.01944700      -0.01768200      -0.00785800
C        4.72695000       7.50506000      13.87500000       0.01838900       0.00274400       0.00625200
C        4.13618000       9.89308000      13.87500000       0.01280600       0.01506800      -0.00405300
C        3.54525000      12.28111000      13.87500000       0.01643200      -0.02491500      -0.00912800
C        8.27212000       2.04690000      13.87500000       0.00964400       0.00606400      -0.00807400
C        7.68143000       4.43479000      13.87500000      -0.00202400       0.01188100      -0.00550600
C        7.09050000       6.82281000      13.87500000       0.00244700      -0.00386100      -0.00075900
C        6.49957000       9.21083000      13.87500000       0.01706400      -0.00852200      -0.01043600
C        5.90873000      11.59872000      13.87500000       0.01180000      -0.01422600      -0.00214300
C       10.63575000       1.36451000      13.87500000       0.02709800       0.00948600      -0.00536000
C       10.04482000       3.75253000      13.87500000      -0.00818200       0.01349700      -0.00083900
C        9.45390000       6.14055000      13.87500000      -0.00433900      -0.00009600      -0.00819200
C        8.86313000       8.52858000      13.87500000      -0.00881700       0.01060400      -0.00473000
C        8.27228000      10.91647000      13.87500000      -0.00771400      -0.00597500      -0.00314400
C       12.99915000       0.68225000      13.87500000       0.00410600       0.01992600       0.00420700
C       12.40838000       3.07028000      13.87500000       0.00771200      -0.02917500      -0.00241300
C       11.81745000       5.45830000      13.87500000       0.00174000       0.00682100       0.00667600
C       -6.69660000      12.28111000      13.87500000      -0.00442000       0.00802600       0.01386600
C       12.80228000       4.43479000      13.87500000       0.02315700      -0.00072600      -0.00065800
C       -3.15135000       6.82281000      13.87500000      -0.00221500      -0.01091200       0.00546700
C       -3.74228000       9.21083000      13.87500000       0.00799400      -0.00672300      -0.00807500
C       -4.33297000      11.59872000      13.87500000       0.02065200       0.00769000       0.00248200
C        0.39390000       1.36451000      13.87500000      -0.05173000      -0.17112500       0.06676100
C       -0.19687000       3.75253000      13.87500000      -0.14142800       0.14943000       0.06128700
C       -0.78780000       6.14055000      13.87500000      -0.01147000      -0.01987800       0.00516000
C       -1.37873000       8.52858000      13.87500000       0.01779700       0.01831200      -0.00505400
C       -1.96958000      10.91647000      13.87500000       0.01688700      -0.00115300      -0.00285800
C        5.12085000       0.00000000      13.87500000      -0.00661400      -0.01068000      -0.00801400
C        2.75745000       0.68225000      13.87500000       0.13273200      -0.14448900      -0.03561400
C        2.16652000       3.07028000      13.87500000       0.19071400       0.05531500       0.05412400
C        1.57560000       5.45830000      13.87500000       0.06138000       0.18355300      -0.03662300
C        0.98475000       7.84619000      13.87500000      -0.00070600       0.00802100      -0.00463600
C        0.39398000      10.23421000      13.87500000       0.00520900      -0.01378200      -0.00497800
C       -0.19695000      12.62223000      13.87500000       0.00392100       0.01331000       0.00609000
C        4.53008000       2.38802000      13.87500000      -0.01338700       0.01964500       0.00041400
C        3.93923000       4.77591000      13.87500000      -0.02190700      -0.02631900       0.00709700
C        3.34830000       7.16394000      13.87500000      -0.00294500       0.00034000       0.00644400
C        2.75737000       9.55196000      13.87500000      -0.00524500       0.00181500      -0.00286000
C        2.16645000      11.93998000      13.87500000       0.00195500      -0.00326700      -0.00790100
C        6.89347000       1.70577000      13.87500000       0.00184200      -0.00536900       0.00013200
C        6.30262000       4.09366000      13.87500000       0.00322500      -0.00158100      -0.00462800
C        5.71170000       6.48168000      13.87500000       0.00902400       0.00863600      -0.00152100
C        5.12093000       8.86970000      13.87500000       0.00106000       0.00346500      -0.00823500
C        4.53008000      11.25759000      13.87500000      -0.02420400       0.00098300       0.00059600
C        9.25710000       1.02338000      13.87500000      -0.00484200      -0.00654200       0.00070700
C        8.66618000       3.41140000      13.87500000      -0.00670500       0.00371400      -0.00388700
C        8.07525000       5.79943000      13.87500000      -0.00897600      -0.01684500      -0.00394500
C        7.48440000       8.18732000      13.87500000      -0.00245400      -0.00087100      -0.00718400
C        6.89347000      10.57534000      13.87500000      -0.00490200       0.01394100      -0.00780100
C        6.30270000      12.96336000      13.87500000       0.00879400      -0.00223200       0.01382900
C       11.62050000       0.34113000      13.87500000      -0.02041800       0.00567900      -0.00626800
C       11.02957000       2.72915000      13.87500000      -0.00733100      -0.01652100      -0.00690200
C       10.43865000       5.11717000      13.87500000      -0.01189900      -0.02366600      -0.00151000
C        9.84795000       7.50506000      13.87500000      -0.00397100       0.01411200      -0.00146300
C        9.25703000       9.89308000      13.87500000       0.01900400      -0.00818100      -0.00667600
C       13.39313000       2.04690000      13.87500000      -0.17816300      -0.04397800      -0.03561800
C        0.00000000       0.00000000      10.12500000      -0.05105800      -0.18290700       0.02476400
C       -4.13610000       7.84619000      10.12500000      -0.01049600       0.00814000      -0.00599400
C       -4.72703000      10.23421000      10.12500000      -0.00588500       0.00700600       0.00914700
C       -5.31780000      12.62223000      10.12500000       0.01389700       0.01914700      -0.00517300
C       -0.59093000       2.38802000      10.12500000      -0.18652600      -0.04280500      -0.05811100
C       -1.18178000       4.77591000      10.12500000      -0.12047700       0.11959000       0.03261800
C       -1.77255000       7.16394000      10.12500000      -0.02208300      -0.00189400       0.00460700
C       -2.36347000       9.55196000      10.12500000      -0.00167300      -0.00468400      -0.00059700
C       -2.95440000      11.93998000      10.12500000      -0.02540900       0.00498000       0.00479100
C        1.77263000       1.70577000      10.12500000       0.13230500      -0.13348400      -0.05723800
C        1.18178000       4.09366000      10.12500000       0.03921000       0.18428100      -0.05161900
C        0.59085000       6.48168000      10.12500000       0.01645300      -0.01028800      -0.00818600
C       -0.00008000       8.86970000      10.12500000      -0.00424000      -0.00463000       0.00044200
C       -0.59077000      11.25759000      10.12500000      -0.00811500       0.00234800       0.00489500
C        4.13610000       1.02338000      10.12500000      -0.02958000       0.00689200       0.00238600
C        3.54517000       3.41140000      10.12500000       0.18173300       0.03038000       0.03317300
C        2.95440000       5.79943000      10.12500000      -0.02783300      -0.01084400      -0.01401700
C        2.36355000       8.18732000      10.12500000      -0.00722500      -0.00806200       0.00559100
C        1.77263000      10.57534000      10.12500000      -0.00168800      -0.00533400      -0.00054900
C        1.18170000      12.96336000      10.12500000       0.00780700       0.00559600      -0.00640900
C        6.49965000       0.34113000      10.12500000      -0.00161900       0.01469200      -0.00626400
C        5.90873000       2.72915000      10.12500000       0.00383100       0.02733900       0.00041200
C        5.31780000       5.11717000      10.12500000       0.01944700      -0.01768200       0.00785800
C        4.72695000       7.50506000      10.12500000       0.01838900       0.00274400      -0.00625200
C        4.13618000       9.89308000      10.12500000       0.01280600       0.01506800       0.00405300
C        3.54525000      12.28111000      10.12500000       0.01643200      -0.02491500       0.00912800
C        8.27212000       2.04690000      10.12500000       0.00964400       0.00606400       0.00807400
C        7.68143000       4.43479000      10.12500000      -0.00202400       0.01188100       0.00550600
C        7.09050000       6.82281000      10.12500000       0.00244700      -0.00386100       0.00075900
C        6.49957000       9.21083000      10.12500000       0.01706400      -0.00852200       0.01043600
C        5.90873000      11.59872000      10.12500000       0.01180000      -0.01422600       0.00214300
C       10.63575000       1.36451000      10.12500000       0.02709800       0.00948600       0.00536000
C       10.04482000       3.75253000      10.12500000      -0.00818200       0.01349700       0.00083900
C        9.45390000       6.14055000      10.12500000      -0.00433900      -0.00009600       0.00819200
C        8.86313000       8.52858000      10.12500000      -0.00881700       0.01060400       0.00473000
C        8.27228000      10.91647000      10.12500000      -0.00771400      -0.00597500       0.00314400
C       12.99915000       0.68225000      10.12500000       0.00410600       0.01992600      -0.00420700
C       12.40838000       3.07028000      10.12500000       0.00771200      -0.02917500       0.00241300
C       11.81745000       5.45830000      10.12500000       0.00174000       0.00682100      -0.00667600
C       -6.69660000      12.28111000      10.12500000      -0.00442000       0.00802600      -0.01386600
C       12.80228000       4.43479000      10.12500000       0.02315700      -0.00072600       0.00065800
C       -3.15135000       6.82281000      10.12500000      -0.00221500      -0.01091200      -0.00546700
C       -3.74228000       9.21083000      10.12500000       0.00799400      -0.00672300       0.00807500
C       -4.33297000      11.59872000      10.12500000       0.02065200       0.00769000      -0.00248200
C        0.39390000       1.36451000      10.12500000      -0.05173000      -0.17112500      -0.06676100
C       -0.19687000       3.75253000      10.12500000      -0.14142800       0.14943000      -0.06128700
C       -0.78780000       6.14055000      10.12500000      -0.01147000      -0.01987800      -0.00516000
C       -1.37873000       8.52858000      10.12500000       0.01779700       0.01831200       0.00505400
C       -1.96958000      10.91647000      10.12500000       0.01688700      -0.00115300       0.00285800
C        5.12085000       0.00000000      10.12500000      -0.00661400      -0.01068000       0.00801400
C        2.75745000       0.68225000      10.12500000       0.13273200      -0.14448900       0.03561400
C        2.16652000       3.07028000      10.12500000       0.19071400       0.05531500      -0.05412400
C        1.57560000       5.45830000      10.12500000       0.06138000       0.18355300       0.03662300
C        0.98475000       7.84619000      10.12500000      -0.00070600       0.00802100       0.00463600
C        0.39398000      10.23421000      10.12500000       0.00520900      -0.01378200       0.00497800
C       -0.19695000      12.62223000      10.12500000       0.00392100       0.01331000      -0.00609000
C        4.53008000       2.38802000      10.12500000      -0.01338700       0.01964500      -0.00041400
C        3.93923000       4.77591000      10.12500000      -0.02190700      -0.02631900      -0.00709700
C        3.34830000       7.16394000      10.12500000      -0.00294500       0.00034000      -0.00644400
C        2.75737000       9.55196000      10.12500000      -0.00524500       0.00181500       0.00286000
C        2.16645000      11.93998000      10.12500000       0.00195500      -0.00326700       0.00790100
C        6.89347000       1.70577000      10.12500000       0.00184200      -0.00536900      -0.00013200
C        6.30262000       4.09366000      10.12500000       0.00322500      -0.00158100       0.00462800
C        5.71170000       6.48168000      10.12500000       0.00902400       0.00863600       0.00152100
C        5.12093000       8.86970000      10.12500000       0.00106000       0.00346500       0.00823500
C        4.53008000      11.25759000      10.12500000      -0.02420400       0.00098300      -0.00059600
C        9.25710000       1.02338000      10.12500000      -0.00484200      -0.00654200      -0.00070700
C        8.66618000       3.41140000      10.12500000      -0.00670500       0.00371400       0.00388700
C        8.07525000       5.79943000      10.12500000      -0.00897600      -0.01684500       0.00394500
C        7.48440000       8.18732000      10.12500000      -0.00245400      -0.00087100       0.00718400
C        6.89347000      10.57534000      10.12500000      -0.00490200       0.01394100       0.00780100
C        6.30270000      12.96336000      10.12500000       0.00879400      -0.00223200      -0.01382900
C       11.62050000       0.34113000      10.12500000      -0.02041800       0.00567900       0.00626800
C       11.02957000       2.72915000      10.12500000      -0.00733100      -0.01652100       0.00690200
C       10.43865000       5.11717000      10.12500000      -0.01189900      -0.02366600       0.00151000
C        9.84795000       7.50506000      10.12500000      -0.00397100       0.01411200       0.00146300
C        9.25703000       9.89308000      10.12500000       0.01900400      -0.00818100       0.00667600
C       13.39313000       2.04690000      10.12500000      -0.17816300      -0.04397800       0.03561800
Li       0.78788000       2.72915000      12.00000000       0.00329700       0.00350700       0.00000000
157
Lattice="15.362700462 0.0 0.0 -7.681350231 13.304488871 0.0 0.0 0.0 24.0" Properties=species:S:1:pos:R:3:forces:R:3 stress="-0.0036964214326400935 2.178286684933257e-06 -0.0 2.178286684933257e-06 -0.0036999478852962177 -0.0 -0.0 -0.0 0.004610452995070942" free_energy=-1450.96409837 energy=-1450.95828866 pbc="T T T"
C        0.00000000       0.00000000      13.87381000      -0.05100400      -0.18257600       0.01057500
C       -4.13610000       7.84619000      13.87529000      -0.01051100       0.00826200       0.00141900
C       -4.72703000      10.23421000      13.87456000      -0.00610700       0.00755000      -0.00400900
C       -5.31780000      12.62223000      13.87525000       0.01363600       0.02050300      -0.00585600
C       -0.59093000       2.38802000      13.87780000      -0.18213800      -0.03835200       0.04481100
C       -1.18178000       4.77591000      13.87343000      -0.12047000       0.11967700      -0.00032000
C       -1.77255000       7.16394000      13.87478000      -0.02248900      -0.00204200       0.00165400
C       -2.36347000       9.55196000      13.87503000      -0.00173800      -0.00459000      -0.00372000
C       -2.95440000      11.93998000      13.87477000      -0.02541000       0.00505700      -0.00463900
C        1.77263000       1.70577000      13.87776000       0.13654200      -0.13637200       0.04202100
C        1.18178000       4.09366000      13.87749000       0.03908800       0.18325000       0.04112300
C        0.59085000       6.48168000      13.87539000       0.01626700      -0.01010300      -0.00796300
C       -0.00008000       8.86970000      13.87498000      -0.00426300      -0.00456500      -0.00356800
C       -0.59077000      11.25759000      13.87476000      -0.00814800       0.00293800      -0.00105400
C        4.13610000       1.02338000      13.87488000      -0.02986200       0.00710400      -0.01342600
C        3.54517000       3.41140000      13.87340000       0.18175500       0.03055900      -0.00226400
C        2.95440000       5.79943000      13.87568000      -0.02957600      -0.00954200      -0.00368400
C        2.36355000       8.18732000      13.87473000      -0.00682000      -0.00819200      -0.00198600
C        1.77263000      10.57534000      13.87503000      -0.00173300      -0.00524200      -0.00358600
C        1.18170000      12.96336000      13.87531000       0.00784200       0.00565000       0.00301400
C        6.49965000       0.34113000      13.87530000      -0.00171400       0.01480700       0.00347200
C        5.90873000       2.72915000      13.87498000       0.00382300       0.02741800      -0.00025800
C        5.31780000       5.11717000      13.87462000       0.01897400      -0.01733200      -0.00015900
C        4.72695000       7.50506000      13.87530000       0.01838700       0.00284000       0.00312100
C        4.13618000       9.89308000      13.87480000       0.01278600       0.01510600      -0.00411800
C        3.54525000      12.28111000      13.87456000       0.01688900      -0.02484800      -0.00440900
C        8.27212000       2.04690000      13.87461000       0.00965100       0.00568500      -0.00185200
C        7.68143000       4.43479000      13.87473000      -0.00206700       0.01195800      -0.00531400
C        7.09050000       6.82281000      13.87496000       0.00245300      -0.00377400      -0.00334800
C        6.49957000       9.21083000      13.87450000       0.01730600      -0.00804300      -0.00982800
C        5.90873000      11.59872000      13.87490000       0.01173000      -0.01412300       0.00241900
C       10.63575000       1.36451000      13.87474000       0.02704000       0.00956700      -0.00656700
C       10.04482000       3.75253000      13.87496000      -0.00816800       0.01357000      -0.00249900
C        9.45390000       6.14055000      13.87460000      -0.00394400       0.00028000      -0.00296900
C        8.86313000       8.52858000      13.87477000      -0.00886300       0.01067100      -0.00632000
C        8.27228000      10.91647000      13.87485000      -0.00770500      -0.00590300      -0.00010600
C       12.99915000       0.68225000      13.87520000       0.00417200       0.01841800      -0.00876600
C       12.40838000       3.07028000      13.87488000       0.00774800      -0.02932100      -0.01351400
C       11.81745000       5.45830000      13.87532000       0.00168900       0.00684600       0.00491900
C       -6.69660000      12.28111000      13.87567000      -0.00264800       0.00893300      -0.00354600
C       12.80228000       4.43479000      13.87497000       0.02289600      -0.00077500      -0.00951500
C       -3.15135000       6.82281000      13.87526000      -0.00222500      -0.01080900       0.00444600
C       -3.74228000       9.21083000      13.87461000       0.00800000      -0.00663000      -0.00393900
C       -4.33297000      11.59872000      13.87512000       0.02148100       0.00602600      -0.00239000
C        0.39390000       1.36451000      13.87822000      -0.05197500      -0.16727000       0.04802200
C       -0.19687000       3.75253000      13.87796000      -0.14574800       0.14223400       0.03659100
C       -0.78780000       6.14055000      13.87525000      -0.01244400      -0.02098600      -0.00903600
C       -1.37873000       8.52858000      13.87476000       0.01778800       0.01835600      -0.00202000
C       -1.96958000      10.91647000      13.87486000       0.01684800      -0.00104300      -0.00390800
C        5.12085000       0.00000000      13.87461000      -0.00659500      -0.01056600      -0.00270200
C        2.75745000       0.68225000      13.87328000       0.13649300      -0.14460400       0.00338500
C        2.16652000       3.07028000      13.87761000       0.19038600       0.05516200       0.04331900
C        1.57560000       5.45830000      13.87323000       0.05915100       0.18269900       0.00023500
C        0.98475000       7.84619000      13.87478000      -0.00072100       0.00815000      -0.00021500
C        0.39398000      10.23421000      13.87476000       0.00518500      -0.01365900      -0.00283500
C       -0.19695000      12.62223000      13.87529000       0.00387200       0.01334600       0.00537300
C        4.53008000       2.38802000      13.87502000      -0.01329900       0.01952800      -0.01082800
C        3.93923000       4.77591000      13.87534000      -0.02189800      -0.03002500      -0.00829700
C        3.34830000       7.16394000      13.87531000      -0.00296100       0.00048400       0.00810400
C        2.75737000       9.55196000      13.87486000      -0.00525900       0.00188700      -0.00390400
C        2.16645000      11.93998000      13.87462000       0.00191000      -0.00316100      -0.00373300
C        6.89347000       1.70577000      13.87501000       0.00180100      -0.00526600       0.00078700
C        6.30262000       4.09366000      13.87478000       0.00321700      -0.00147800      -0.00670100
C        5.71170000       6.48168000      13.87493000       0.00870100       0.00744100       0.00170900
C        5.12093000       8.86970000      13.87460000       0.00101900       0.00357300      -0.00532300
C        4.53008000      11.25759000      13.87503000      -0.02422500       0.00111000      -0.00332600
C        9.25710000       1.02338000      13.87503000      -0.00484500      -0.00642900      -0.00141600
C        8.66618000       3.41140000      13.87481000      -0.00677000       0.00377100      -0.00585800
C        8.07525000       5.79943000      13.87481000      -0.00899700      -0.01673700      -0.00561100
C        7.48440000       8.18732000      13.87465000      -0.00332400       0.00232700      -0.00561400
C        6.89347000      10.57534000      13.87462000      -0.00787300       0.01467900      -0.00724400
C        6.30270000      12.96336000      13.87567000       0.00853900      -0.00396600      -0.00349200
C       11.62050000       0.34113000      13.87470000      -0.02046700       0.00570500      -0.00479200
C       11.02957000       2.72915000      13.87467000      -0.00426400      -0.01719300      -0.00310100
C       10.43865000       5.11717000      13.87493000      -0.01191300      -0.02357600       0.00006800
C        9.84795000       7.50506000      13.87493000      -0.00445700       0.01294800      -0.00005700
C        9.25703000       9.89308000      13.87468000       0.01900000      -0.00806200      -0.00662900
C       13.39313000       2.04690000      13.87328000      -0.17982400      -0.04045200       0.00337300
C        0.00000000       0.00000000      10.12619000      -0.05100400      -0.18257600      -0.01057500
C       -4.13610000       7.84619000      10.12471000      -0.01051100       0.00826200      -0.00141900
C       -4.72703000      10.23421000      10.12544000      -0.00610700       0.00755000       0.00400900
C       -5.31780000      12.62223000      10.12475000       0.01363600       0.02050300       0.00585600
C       -0.59093000       2.38802000      10.12220000      -0.18213800      -0.03835200      -0.04481100
C       -1.18178000       4.77591000      10.12657000      -0.12047000       0.11967700       0.00032000
C       -1.77255000       7.16394000      10.12522000      -0.02248900      -0.00204200      -0.00165400
C       -2.36347000       9.55196000      10.12497000      -0.00173800      -0.00459000       0.00372000
C       -2.95440000      11.93998000      10.12523000      -0.02541000       0.00505700       0.00463900
C        1.77263000       1.70577000      10.12224000       0.13654200      -0.13637200      -0.04202100
C        1.18178000       4.09366000      10.12251000       0.03908800       0.18325000      -0.04112300
C        0.59085000       6.48168000      10.12461000       0.01626700      -0.01010300       0.00796300
C       -0.00008000       8.86970000      10.12502000      -0.00426300      -0.00456500       0.00356800
C       -0.59077000      11.25759000      10.12524000      -0.00814800       0.00293800       0.00105400
C        4.13610000       1.02338000      10.12512000      -0.02986200       0.00710400       0.01342600
C        3.54517000       3.41140000      10.12660000       0.18175500       0.03055900       0.00226400
C        2.95440000       5.79943000      10.12432000      -0.02957600      -0.00954200       0.00368400
C        2.36355000       8.18732000      10.12527000      -0.00682000      -0.00819200       0.00198600
C        1.77263000      10.57534000      10.12497000      -0.00173300      -0.00524200       0.00358600
C        1.18170000      12.96336000      10.12469000       0.00784200       0.00565000      -0.00301400
C        6.49965000       0.34113000      10.12470000      -0.00171400       0.01480700      -0.00347200
C        5.90873000       2.72915000      10.12502000       0.00382300       0.02741800       0.00025800
C        5.31780000       5.11717000      10.12538000       0.01897400      -0.01733200       0.00015900
C        4.72695000       7.50506000      10.12470000       0.01838700       0.00284000      -0.00312100
C        4.13618000       9.89308000      10.12520000       0.01278600       0.01510600       0.00411800
C        3.54525000      12.28111000      10.12544000       0.01688900      -0.02484800       0.00440900
C        8.27212000       2.04690000      10.12539000       0.00965100       0.00568500       0.00185200
C        7.68143000       4.43479000      10.12527000      -0.00206700       0.01195800       0.00531400
C        7.09050000       6.82281000      10.12504000       0.00245300      -0.00377400       0.00334800
C        6.49957000       9.21083000      10.12550000       0.01730600      -0.00804300       0.00982800
C        5.90873000      11.59872000      10.12510000       0.01173000      -0.01412300      -0.00241900
C       10.63575000       1.36451000      10.12526000       0.02704000       0.00956700       0.00656700
C       10.04482000       3.75253000      10.12504000      -0.00816800       0.01357000       0.00249900
C        9.45390000       6.14055000      10.12540000      -0.00394400       0.00028000       0.00296900
C        8.86313000       8.52858000      10.12523000      -0.00886300       0.01067100       0.00632000
C        8.27228000      10.91647000      10.12515000      -0.00770500      -0.00590300       0.00010600
C       12.99915000       0.68225000      10.12480000       0.00417200       0.01841800       0.00876600
C       12.40838000       3.07028000      10.12512000       0.00774800      -0.02932100       0.01351400
C       11.81745000       5.45830000      10.12468000       0.00168900       0.00684600      -0.00491900
C       -6.69660000      12.28111000      10.12433000      -0.00264800       0.00893300       0.00354600
C       12.80228000       4.43479000      10.12503000       0.02289600      -0.00077500       0.00951500
C       -3.15135000       6.82281000      10.12474000      -0.00222500      -0.01080900      -0.00444600
C       -3.74228000       9.21083000      10.12539000       0.00800000      -0.00663000       0.00393900
C       -4.33297000      11.59872000      10.12488000       0.02148100       0.00602600       0.00239000