157
Lattice="15.362700462 0.0 0.0 -7.681350231 13.304488871 0.0 0.0 0.0 24.0" Properties=species:S:1:pos:R:3:forces:R:3 stress="-0.003632820454647344 3.86973565804762e-07 -3.8073205667887874e-07 3.86973565804762e-07 -0.003630898069836571 -9.237433506307223e-07 -3.8073205667887874e-07 -9.237433506307223e-07 0.0012777118161778134" free_energy=-1450.1905543 energy=-1450.18115962 pbc="T T T"
C        0.00000000       0.00000000      13.67500000      -0.09060900      -0.31390900       0.19753600
C       -4.13610000       7.84619000      13.67500000      -0.01060200       0.00536900       0.03080000
C       -4.72703000      10.23421000      13.67500000      -0.01170000       0.00413500       0.01521900
C       -5.31780000      12.62223000      13.67500000       0.05471900      -0.05403200       0.03658200
C       -0.59093000       2.38802000      13.67500000      -0.22618000       0.23963500       0.19043000
C       -1.18178000       4.77591000      13.67500000      -0.01443400      -0.02711200       0.02078800
C       -1.77255000       7.16394000      13.67500000      -0.01700300       0.00082900       0.01915900
C       -2.36347000       9.55196000      13.67500000       0.00068700      -0.00589800       0.02448900
C       -2.95440000      11.93998000      13.67500000      -0.00899300       0.01223900       0.02069600
C        1.77263000       1.70577000      13.67500000       0.31574200       0.08412600       0.18953400
C        1.18178000       4.09366000      13.67500000       0.00623600       0.06653000       0.02998600
C        0.59085000       6.48168000      13.67500000      -0.01724600       0.00838200       0.02508900
C       -0.00008000       8.86970000      13.67500000       0.00533700      -0.00635600       0.02375100
C       -0.59077000      11.25759000      13.67500000      -0.00234000       0.00829600       0.01950000
C        4.13610000       1.02338000      13.67500000      -0.00024000       0.04176400       0.01434800
C        3.54517000       3.41140000      13.67500000       0.01444700      -0.03792100       0.02023300
C        2.95440000       5.79943000      13.67500000       0.01305600      -0.01597900       0.03078900
C        2.36355000       8.18732000      13.67500000      -0.00125800       0.00218400       0.01909800
C        1.77263000      10.57534000      13.67500000      -0.00184000      -0.00512800       0.02490300
C        1.18170000      12.96336000      13.67500000       0.00485600       0.00456300       0.03024100
C        6.49965000       0.34113000      13.67500000      -0.00567300       0.01481500       0.03026200
C        5.90873000       2.72915000      13.67500000       0.00310700       0.01335800       0.02040900
C        5.31780000       5.11717000      13.67500000       0.01644600      -0.00927800       0.01579000
C        4.72695000       7.50506000      13.67500000       0.01256200       0.00184600       0.03075300
C        4.13618000       9.89308000      13.67500000       0.01680300       0.00909600       0.02014700
C        3.54525000      12.28111000      13.67500000       0.01803100      -0.02685300       0.01524100
C        8.27212000       2.04690000      13.67500000       0.01220400       0.00977300       0.01640300
C        7.68143000       4.43479000      13.67500000      -0.00704700       0.00833800       0.01893900
C        7.09050000       6.82281000      13.67500000       0.00594300      -0.00750500       0.02359700
C        6.49957000       9.21083000      13.67500000       0.01496400      -0.00433800       0.01080000
C        5.90873000      11.59872000      13.67500000       0.02148900      -0.02119000       0.02197000
C       10.63575000       1.36451000      13.67500000       0.01662900       0.02574300       0.02009500
C       10.04482000       3.75253000      13.67500000      -0.01045000       0.00781800       0.02319600
C        9.45390000       6.14055000      13.67500000      -0.00610400      -0.00074900       0.01619300
C        8.86313000       8.52858000      13.67500000      -0.01569000       0.00408200       0.01945400
C        8.27228000      10.91647000      13.67500000      -0.02020800      -0.00517300       0.02096400
C       12.99915000       0.68225000      13.67500000      -0.07168900      -0.02072900       0.03557400
C       12.40838000       3.07028000      13.67500000       0.00178200       0.01413300       0.01436600
C       11.81745000       5.45830000      13.67500000      -0.00447000      -0.00729500       0.02735500
C       -6.69660000      12.28111000      13.67500000       0.10681100      -0.12812200       0.04770600
C       12.80228000       4.43479000      13.67500000       0.00125800      -0.00730700       0.03224300
C       -3.15135000       6.82281000      13.67500000      -0.00047000      -0.00149000       0.04233600
C       -3.74228000       9.21083000      13.67500000       0.00847000      -0.00663400       0.02771900
C       -4.33297000      11.59872000      13.67500000       0.00589900       0.00330700       0.03321400
C        0.39390000       1.36451000      13.67500000       0.00069200       0.01431800       3.82520800
C       -0.19687000       3.75253000      13.67500000       0.01844400       0.15846300       0.04196800
C       -0.78780000       6.14055000      13.67500000       0.01959500       0.01331900       0.03692500
C       -1.37873000       8.52858000      13.67500000       0.01008200       0.01464600       0.03089200
C       -1.96958000      10.91647000      13.67500000       0.01191900       0.00224400       0.03394500
C        5.12085000       0.00000000      13.67500000      -0.00793500      -0.02202700       0.03058900
C        2.75745000       0.68225000      13.67500000       0.11499200      -0.10365200       0.03394500
C        2.16652000       3.07028000      13.67500000       0.05933000       0.14857900       0.03475000
C        1.57560000       5.45830000      13.67500000       0.00704200       0.00207500       0.02267800
C        0.98475000       7.84619000      13.67500000      -0.01725800       0.00411000       0.03072500
C        0.39398000      10.23421000      13.67500000       0.00645600      -0.01409400       0.03061000
C       -0.19695000      12.62223000      13.67500000       0.00579700       0.00786000       0.04210300
C        4.53008000       2.38802000      13.67500000       0.00134800      -0.00009300       0.03347800
C        3.93923000       4.77591000      13.67500000      -0.03527500       0.01922200       0.03866800
C        3.34830000       7.16394000      13.67500000       0.00699100      -0.01035800       0.04212200
C        2.75737000       9.55196000      13.67500000      -0.00751800      -0.00676500       0.03410500
C        2.16645000      11.93998000      13.67500000       0.00190300      -0.00631300       0.02783000
C        6.89347000       1.70577000      13.67500000      -0.00243300      -0.00280000       0.03638000
C        6.30262000       4.09366000      13.67500000       0.00869600       0.00781200       0.03267800
C        5.71170000       6.48168000      13.67500000       0.00838900       0.00034700       0.03482900
C        5.12093000       8.86970000      13.67500000      -0.00257600       0.00964100       0.02800600
C        4.53008000      11.25759000      13.67500000      -0.03227700       0.01112000       0.03961400
C        9.25710000       1.02338000      13.67500000       0.00147500      -0.00462300       0.03742500
C        8.66618000       3.41140000      13.67500000      -0.00753300       0.00013500       0.03255100
C        8.07525000       5.79943000      13.67500000      -0.00675400      -0.01278900       0.03226400
C        7.48440000       8.18732000      13.67500000       0.00629900      -0.00329800       0.02948700
C        6.89347000      10.57534000      13.67500000      -0.00629800       0.00467900       0.03326500
C        6.30270000      12.96336000      13.67500000      -0.15516000      -0.05898700       0.04759500
C       11.62050000       0.34113000      13.67500000      -0.00858800      -0.00598800       0.02445100
C       11.02957000       2.72915000      13.67500000      -0.01293900      -0.02573400       0.03190700
C       10.43865000       5.11717000      13.67500000      -0.00603100      -0.01763000       0.03497900
C        9.84795000       7.50506000      13.67500000      -0.00146000       0.01812700       0.03516900
C        9.25703000       9.89308000      13.67500000       0.03379000      -0.00155100       0.03240200
C       13.39313000       2.04690000      13.67500000      -0.14365000      -0.01847700       0.03404700
C       10.24177000       8.86970000      10.32500000      -0.01096800      -0.00130200      -0.02784800
C       -5.71178000      11.25759000      10.32500000       0.00590600       0.03452900      -0.03471900
C       -1.57568000       3.41140000      10.32500000      -0.14110300       0.14669800       0.00353100
C       -2.16660000       5.79943000      10.32500000      -0.00809100      -0.02458800      -0.03593200
C       -2.75730000       8.18732000      10.32500000       0.00255800       0.00858600      -0.03476800
C       -3.34822000      10.57534000      10.32500000      -0.00802600       0.00760800      -0.02744500
C       -3.93915000      12.96336000      10.32500000      -0.03107200      -0.00490700      -0.03543900
C        1.37865000       0.34113000      10.32500000       0.20708500      -0.19223700      -0.22548100
C        0.78788000       2.72915000      10.32500000       0.08191200       0.26358200      -0.21187800
C        0.19695000       5.11717000      10.32500000       0.02633200      -0.02559700      -0.03497000
C       -0.39390000       7.50506000      10.32500000      -0.00796200       0.01228800      -0.03227300
C       -0.98483000       9.89308000      10.32500000       0.00179100      -0.00947000      -0.03244900
C       -1.57575000      12.28111000      10.32500000       0.00590200       0.01304700      -0.03748700
C        3.15127000       2.04690000      10.32500000       0.20055100       0.05234000      -0.00379500
C        2.56042000       4.43479000      10.32500000      -0.04401000      -0.01070300      -0.03370000
C        1.96965000       6.82281000      10.32500000      -0.01787300      -0.01159300      -0.03294500
C        1.37873000       9.21083000      10.32500000      -0.00906500      -0.00775000      -0.03243500
C        0.78788000      11.59872000      10.32500000       0.00142000      -0.00230500      -0.03639100
C        5.51490000       1.36451000      10.32500000      -0.00228800       0.02193400      -0.02908800
C        4.92398000       3.75253000      10.32500000       0.00830800      -0.00402200      -0.03500600
C        4.33305000       6.14055000      10.32500000       0.00176700       0.00624100      -0.04218300
C        3.74212000       8.52858000      10.32500000       0.01916600       0.00251000      -0.03602400
C        3.15127000      10.91647000      10.32500000       0.00513600      -0.01390000      -0.02907900
C       10.24185000       0.00000000      10.32500000       0.01963100       0.00180200      -0.02621800
C        7.87830000       0.68225000      10.32500000      -0.00468800      -0.00986900      -0.04237100
C        7.28737000       3.07028000      10.32500000      -0.00081100       0.02106800      -0.03046900
C        6.69660000       5.45830000      10.32500000       0.01152800      -0.00015300      -0.03102300
C        6.10575000       7.84619000      10.32500000      -0.00660200      -0.00890300      -0.02729000
C        5.51483000      10.23421000      10.32500000       0.01390000      -0.01733400      -0.03058900
C        4.92390000      12.62223000      10.32500000       0.01365200       0.04607800      -0.03475400
C        9.65093000       2.38802000      10.32500000      -0.01002700       0.01403100      -0.03418400
C        9.06008000       4.77591000      10.32500000      -0.00782100      -0.01330200      -0.03102100
C        8.46915000       7.16394000      10.32500000       0.00717100      -0.00227300      -0.03423400
C        7.87822000       9.55196000      10.32500000      -0.00584100      -0.01076800      -0.03770600
C        7.28745000      11.93998000      10.32500000      -0.05335000      -0.20265500      -0.00943600
C       12.01432000       1.70577000      10.32500000       0.02382100      -0.03066600      -0.04416800
C       11.42363000       4.09366000      10.32500000       0.00182600       0.02026800      -0.02860600
C       10.83270000       6.48168000      10.32500000       0.00240800       0.00585900      -0.04168500
C       14.37795000       1.02338000      10.32500000      -0.28210700      -0.05801200      -0.22557800
C        0.00000000       0.00000000      10.32500000      -0.07958300      -0.27507300      -0.22595800
C       -4.13610000       7.84619000      10.32500000       0.00379400       0.00973800      -0.03037400
C       -4.72703000      10.23421000      10.32500000       0.02779100       0.01523200      -0.01493100
C       -5.31780000      12.62223000      10.32500000       0.14989200      -0.14611100       0.01191400
C       -0.59093000       2.38802000      10.32500000      -0.20336200       0.20619600      -0.21774000
C       -1.18178000       4.77591000      10.32500000       0.00056500      -0.04053400      -0.02573200
C       -1.77255000       7.16394000      10.32500000       0.01535800       0.01106200      -0.01570700
C       -2.36347000       9.55196000      10.32500000       0.01861300      -0.00269200      -0.02300800
C       -2.95440000      11.93998000      10.32500000      -0.01840600      -0.02325600      -0.02082400
C        1.77263000       1.70577000      10.32500000       0.27874000       0.07037500      -0.21889300
C        1.18178000       4.09366000      10.32500000       0.04341200       0.20234200       0.01852500
C        0.59085000       6.48168000      10.32500000       0.01238100       0.01367600      -0.02454900
C       -0.00008000       8.86970000      10.32500000       0.00585200      -0.00412500      -0.01888100
C       -0.59077000      11.25759000      10.32500000      -0.00848800       0.00002900      -0.01612000
C        4.13610000       1.02338000      10.32500000      -0.02987400       0.03587100      -0.02086900
C        3.54517000       3.41140000      10.32500000      -0.01707800      -0.04875400      -0.02627800
C        2.95440000       5.79943000      10.32500000      -0.02036700       0.00710800      -0.03146900
C        2.36355000       8.18732000      10.32500000      -0.01139900       0.02000500      -0.01560300
C        1.77263000      10.57534000      10.32500000      -0.00024100      -0.01131800      -0.02354100
C        1.18170000      12.96336000      10.32500000       0.00118000      -0.01208200      -0.02996200
C        6.49965000       0.34113000      10.32500000      -0.00264900      -0.01780900      -0.03009100
C        5.90873000       2.72915000      10.32500000      -0.00620300      -0.00351300      -0.02279500
C        5.31780000       5.11717000      10.32500000      -0.00047800       0.01380300      -0.01881800
C        4.72695000       7.50506000      10.32500000       0.00119900       0.00939700      -0.03039600
C        4.13618000       9.89308000      10.32500000      -0.01407000       0.02258200      -0.01937700
C        3.54525000      12.28111000      10.32500000      -0.00930500      -0.00310100      -0.01493600
C        8.27212000       2.04690000      10.32500000       0.00316500      -0.00822000      -0.01925800
C        7.68143000       4.43479000      10.32500000      -0.01019500      -0.00022800      -0.02325600
C        7.09050000       6.82281000      10.32500000      -0.00355600      -0.00524200      -0.02440400
C        6.49957000       9.21083000      10.32500000       0.01453900       0.01411000      -0.01295500
C        5.90873000      11.59872000      10.32500000       0.03241100      -0.00003100      -0.02648100
C       10.63575000       1.36451000      10.32500000       0.01119800      -0.01802600      -0.02137600
C       10.04482000       3.75253000      10.32500000      -0.01369300      -0.01077900      -0.02420800
C        9.45390000       6.14055000      10.32500000       0.00993900      -0.00152500      -0.01902200
C        8.86313000       8.52858000      10.32500000       0.00315800       0.01378200      -0.01979600
C        8.27228000      10.91647000      10.32500000      -0.02270400       0.01879900      -0.02744100
C       12.99915000       0.68225000      10.32500000      -0.20910100      -0.04935900       0.01090300
C       12.40838000       3.07028000      10.32500000       0.02603900      -0.00731900      -0.02083800
C       11.81745000       5.45830000      10.32500000       0.01232200      -0.01489700      -0.02853800
Li       0.39390000       1.36451000      12.00000000      -0.00364600       0.00484700      -3.36526300
157
Lattice="15.362700462 0.0 0.0 -7.681350231 13.304488871 0.0 0.0 0.0 24.0" Properties=species:S:1:pos:R:3:forces:R:3 stress="-0.00367191102630275 3.507728128746391e-06 3.994565840565286e-07 3.507728128746391e-06 -0.003663772098402598 1.1983697521695855e-06 3.994565840565286e-07 1.1983697521695855e-06 0.002242986168532163" free_energy=-1450.5295419 energy=-1450.52009263 pbc="T T T"
C        0.00000000       0.00000000      13.68453000      -0.02992600      -0.10344000       1.03616700
C       -4.13610000       7.84619000      13.67649000      -0.00585800       0.00719100       0.03270800
C       -4.72703000      10.23421000      13.67573000      -0.00938200       0.00602800       0.02717900
C       -5.31780000      12.62223000      13.67676000       0.05000300      -0.05294700       0.10301900
C       -0.59093000       2.38802000      13.68419000      -0.06911800       0.08332800       1.02762200
C       -1.18178000       4.77591000      13.67600000      -0.00833500      -0.02055700      -0.06298300
C       -1.77255000       7.16394000      13.67592000      -0.01567600       0.00177700       0.03871700
C       -2.36347000       9.55196000      13.67618000       0.00150200      -0.00462900       0.03062400
C       -2.95440000      11.93998000      13.67600000      -0.01045000       0.01203300       0.02345300
C        1.77263000       1.70577000      13.68414000       0.10609700       0.02502600       1.02461900
C        1.18178000       4.09366000      13.67645000       0.00372600       0.05782300       0.09647700
C        0.59085000       6.48168000      13.67621000      -0.01554600       0.00942600       0.02818500
C       -0.00008000       8.86970000      13.67615000       0.00570400      -0.00603100       0.01948800
C       -0.59077000      11.25759000      13.67594000      -0.00266100       0.00775900       0.03235100
C        4.13610000       1.02338000      13.67569000       0.00196300       0.03120300      -0.06349200
C        3.54517000       3.41140000      13.67598000       0.01036300      -0.02751700      -0.06492700
C        2.95440000       5.79943000      13.67649000       0.00702600      -0.01203300       0.03325200
C        2.36355000       8.18732000      13.67592000      -0.00220100       0.00167700       0.03338500
C        1.77263000      10.57534000      13.67620000      -0.00294500      -0.00581400       0.02968600
C        1.18170000      12.96336000      13.67646000       0.00496400       0.00045700       0.03592900
C        6.49965000       0.34113000      13.67646000      -0.00490300       0.01735000       0.04086100
C        5.90873000       2.72915000      13.67598000       0.00315100       0.01407400       0.04390500
C        5.31780000       5.11717000      13.67576000       0.01534600      -0.00904700       0.03723400
C        4.72695000       7.50506000      13.67648000       0.01457300      -0.00001900       0.03276000
C        4.13618000       9.89308000      13.67597000       0.01683300       0.00895200       0.03077200
C        3.54525000      12.28111000      13.67574000       0.01660700      -0.02443900       0.02662900
C        8.27212000       2.04690000      13.67579000       0.01177900       0.00863400       0.03027100
C        7.68143000       4.43479000      13.67591000      -0.00838300       0.00903300       0.02654200
C        7.09050000       6.82281000      13.67614000       0.00625000      -0.00827200       0.02964700
C        6.49957000       9.21083000      13.67552000       0.01455800      -0.00382300       0.03725600
C        5.90873000      11.59872000      13.67606000       0.00698200      -0.01836400      -0.05471100
C       10.63575000       1.36451000      13.67597000       0.01728500       0.02135700       0.02193000
C       10.04482000       3.75253000      13.67612000      -0.01143400       0.00687900       0.03676100
C        9.45390000       6.14055000      13.67578000      -0.00625000      -0.00042800       0.02992000
C        8.86313000       8.52858000      13.67594000      -0.01560000       0.00630700       0.03077700
C        8.27228000      10.91647000      13.67601000      -0.01064400      -0.00958000      -0.05698300
C       12.99915000       0.68225000      13.67672000      -0.06268600      -0.01297000       0.09958900
C       12.40838000       3.07028000      13.67569000      -0.00602300       0.00701900      -0.06368400
C       11.81745000       5.45830000      13.67632000      -0.00827000      -0.00842800       0.04742000
C       -6.69660000      12.28111000      13.67730000       0.09952000      -0.12974300       0.01377800
C       12.80228000       4.43479000      13.67656000       0.00129000      -0.00820400       0.03490200
C       -3.15135000       6.82281000      13.67704000      -0.00089600       0.00306000       0.02606200
C       -3.74228000       9.21083000      13.67634000       0.00850900      -0.00703900       0.02486300
C       -4.33297000      11.59872000      13.67660000       0.00291700       0.00430000       0.02483800
C        0.39390000       1.36451000      13.85954000       0.00365200       0.01490400      -1.58256500
C       -0.19687000       3.75253000      13.67702000       0.00821700       0.15118200       0.00230900
C       -0.78780000       6.14055000      13.67678000       0.01481900       0.01226500       0.01642900
C       -1.37873000       8.52858000      13.67649000       0.00958200       0.01537800       0.02374600
C       -1.96958000      10.91647000      13.67664000       0.01100500       0.00264700       0.02266700
C        5.12085000       0.00000000      13.67648000      -0.00705600      -0.01838000       0.01343700
C        2.75745000       0.68225000      13.67664000       0.11615400      -0.09542600      -0.00015600
C        2.16652000       3.07028000      13.67668000       0.06575000       0.14236300       0.00552500
C        1.57560000       5.45830000      13.67609000       0.00765600       0.00375700       0.03185800
C        0.98475000       7.84619000      13.67648000      -0.01773800       0.00381400       0.02331300
C        0.39398000      10.23421000      13.67648000       0.00738000      -0.01449700       0.02364900
C       -0.19695000      12.62223000      13.67703000       0.00876500       0.00530900       0.02794100
C        4.53008000       2.38802000      13.67662000       0.00177600      -0.00106600       0.03396200
C        3.93923000       4.77591000      13.67687000      -0.03408500       0.01373200       0.01275500
C        3.34830000       7.16394000      13.67703000       0.00271900      -0.01133600       0.02759700
C        2.75737000       9.55196000      13.67665000      -0.00586800      -0.00651700       0.02313000
C        2.16645000      11.93998000      13.67634000      -0.00093700      -0.00437000       0.02464200
C        6.89347000       1.70577000      13.67676000      -0.00075300      -0.00231300       0.02260000
C        6.30262000       4.09366000      13.67658000       0.00943900       0.00963600       0.01607000
C        5.71170000       6.48168000      13.67668000       0.00785400      -0.00176100       0.02587900
C        5.12093000       8.86970000      13.67635000      -0.00160300       0.00955300       0.01825100
C        4.53008000      11.25759000      13.67691000      -0.02456800       0.00970500       0.01240700
C        9.25710000       1.02338000      13.67681000       0.00575500      -0.00602200       0.01812700
C        8.66618000       3.41140000      13.67657000      -0.01019600       0.00089300       0.01823000
C        8.07525000       5.79943000      13.67656000      -0.00525100      -0.01443500       0.02003500
C        7.48440000       8.18732000      13.67642000       0.00432100      -0.00340700       0.01744900
C        6.89347000      10.57534000      13.67660000      -0.00580600       0.00628200       0.03137000
C        6.30270000      12.96336000      13.67730000      -0.14956700      -0.06768600       0.01367200
C       11.62050000       0.34113000      13.67618000      -0.01054700      -0.00592300       0.02856800
C       11.02957000       2.72915000      13.67654000      -0.01232900      -0.01975800       0.01250100
C       10.43865000       5.11717000      13.67669000      -0.00735600      -0.01469900       0.02370200
C        9.84795000       7.50506000      13.67670000      -0.00103900       0.02006500       0.02038800
C        9.25703000       9.89308000      13.67656000       0.02958400      -0.00379800       0.01527500
C       13.39313000       2.04690000      13.67664000      -0.14039000      -0.01062500       0.00002900
C       10.24177000       8.86970000      10.32366000      -0.01281000      -0.00188400      -0.02135800
C       -5.71178000      11.25759000      10.32333000       0.00398700       0.04013200      -0.00932800
C       -1.57568000       3.41140000      10.32517000      -0.15333900       0.15883200      -0.04195300
C       -2.16660000       5.79943000      10.32327000      -0.01042500      -0.03056600      -0.02052200
C       -2.75730000       8.18732000      10.32332000       0.00328100       0.00517400      -0.02588200
C       -3.34822000      10.57534000      10.32368000      -0.01000900       0.00696100      -0.01910100
C       -3.93915000      12.96336000      10.32329000      -0.03596600      -0.00402900      -0.01471300
C        1.37865000       0.34113000      10.31412000       0.29570700      -0.27775500      -0.33086900
C        0.78788000       2.72915000      10.31478000       0.12024600       0.38754100      -0.32128200
C        0.19695000       5.11717000      10.32331000       0.02933200      -0.03004300      -0.01198400
C       -0.39390000       7.50506000      10.32344000      -0.01162500       0.01386700      -0.02109700
C       -0.98483000       9.89308000      10.32343000       0.00290400      -0.00926000      -0.01837600
C       -1.57575000      12.28111000      10.32319000       0.00136700       0.01640900      -0.01970000
C        3.15127000       2.04690000      10.32482000       0.21676300       0.05680500      -0.04531200
C        2.56042000       4.43479000      10.32337000      -0.04824400      -0.01406300      -0.01284400
C        1.96965000       6.82281000      10.32341000      -0.01641700      -0.01049500      -0.02536700
C        1.37873000       9.21083000      10.32344000      -0.00923600      -0.00985500      -0.01841500
C        0.78788000      11.59872000      10.32324000      -0.00020000      -0.00084500      -0.02501300
C        5.51490000       1.36451000      10.32360000      -0.00271100       0.02296000      -0.02549600
C        4.92398000       3.75253000      10.32331000       0.00621700      -0.00601600      -0.02340500
C        4.33305000       6.14055000      10.32296000       0.00789200       0.00751600      -0.02916500
C        3.74212000       8.52858000      10.32326000       0.02256100       0.00627800      -0.01983000
C        3.15127000      10.91647000      10.32360000       0.00534600      -0.01388900      -0.02046200
C       10.24185000       0.00000000      10.32374000       0.02129100       0.00249400      -0.01999900
C        7.87830000       0.68225000      10.32296000      -0.00923700      -0.00600400      -0.02820000
C        7.28737000       3.07028000      10.32353000      -0.00326000       0.02212400      -0.02296700
C        6.69660000       5.45830000      10.32350000       0.01217400       0.00079300      -0.02386200
C        6.10575000       7.84619000      10.32368000      -0.00577500      -0.00802800      -0.02449000
C        5.51483000      10.23421000      10.32352000       0.01681300      -0.01638800      -0.02248000
C        4.92390000      12.62223000      10.32332000       0.01807800       0.05026300      -0.00928800
C        9.65093000       2.38802000      10.32335000      -0.01019300       0.01485300      -0.02425100
C        9.06008000       4.77591000      10.32350000      -0.00793900      -0.01461900      -0.02386800
C        8.46915000       7.16394000      10.32335000       0.00777200      -0.00103200      -0.02325400
C        7.87822000       9.55196000      10.32318000      -0.00624800      -0.00308300      -0.01939100
C        7.28745000      11.93998000      10.32454000      -0.05632300      -0.21971100      -0.05045200
C       12.01432000       1.70577000      10.32287000       0.03245000      -0.03392200      -0.00910100
C       11.42363000       4.09366000      10.32362000       0.00372600       0.02082300      -0.02550500
C       10.83270000       6.48168000      10.32299000       0.00148700       0.00009900      -0.02728000
C       14.37795000       1.02338000      10.31412000      -0.41599500      -0.09493900      -0.33129200
C        0.00000000       0.00000000      10.31410000      -0.11685300      -0.40411200      -0.34475800
C       -4.13610000       7.84619000      10.32353000       0.00785900       0.01248800      -0.03450700
C       -4.72703000      10.23421000      10.32428000       0.02992500       0.01758100      -0.02480100
C       -5.31780000      12.62223000      10.32557000       0.16498100      -0.16159400      -0.04883700