173
Lattice="16.131299972 0.0 0.0 -8.065649986 13.970115572 0.0 0.0 0.0 24.0" Properties=species:S:1:pos:R:3:forces:R:3 stress="-0.0036519756461546793 1.6309063345932957e-05 -0.0 1.6309063345932957e-05 -0.0036317281905503137 -0.0 -0.0 -0.0 0.004620227198362075" free_energy=-1599.59599321 energy=-1599.59090128 pbc="T T T"
C        0.00000000       0.00000000      13.87500000      -0.03633700      -0.19157600      -0.02666000
C       -0.93779000       2.27420000      13.87500000      -0.18355400      -0.07614900       0.04953300
C       -1.87575000       4.54839000      13.87500000      -0.15024100       0.10683500      -0.03646800
C       -2.81354000       6.82259000      13.87500000      -0.01940200      -0.00814500      -0.00493400
C       -3.75150000       9.09678000      13.87500000      -0.00709300      -0.00139400       0.00508000
C       -4.68929000      11.37098000      13.87500000      -0.02006200      -0.00664100      -0.00008100
C       -5.62724000      13.64517000      13.87500000      -0.00479600       0.02669600       0.00650200
C        1.50061000       1.94925000      13.87500000       0.14391000      -0.11423800       0.05220800
C        0.56274000       4.22359000      13.87500000       0.02226800       0.19294200       0.05139800
C       -0.37521000       6.49778000      13.87500000       0.02535000      -0.01660600       0.00185600
C       -1.31301000       8.77198000      13.87500000      -0.01790300      -0.00789800      -0.00951300
C       -2.25096000      11.04617000      13.87500000      -0.00528000      -0.01078300       0.00314000
C       -3.18875000      13.32037000      13.87500000      -0.02241100       0.00082500       0.00129500
C        3.93910000       1.62445000      13.87500000      -0.03074400      -0.02054800       0.00709900
C        3.00115000       3.89864000      13.87500000       0.17762900       0.06500900      -0.03636100
C        2.06335000       6.17284000      13.87500000      -0.02197400      -0.01846400      -0.00020300
C        1.12540000       8.44703000      13.87500000      -0.00122300      -0.01047100      -0.01267000
C        0.18761000      10.72123000      13.87500000       0.00029900      -0.00495200      -0.00158700
C       -0.75035000      12.99542000      13.87500000      -0.00348100       0.00161400      -0.00041800
C        6.37751000       1.29950000      13.87500000      -0.00944200       0.01257600       0.00127600
C        5.43972000       3.57370000      13.87500000      -0.00935200       0.01093300       0.00425900
C        4.50176000       5.84789000      13.87500000       0.01186200      -0.01163500      -0.00720400
C        3.56389000       8.12223000      13.87500000       0.01146200      -0.01241400      -0.00455800
C        2.62593000      10.39642000      13.87500000       0.01900200      -0.00802300       0.00291000
C        1.68814000      12.67062000      13.87500000       0.00323700      -0.00524900       0.00091000
C        8.81600000       0.97469000      13.87500000       0.00224200       0.00524800      -0.00414000
C        7.87804000       3.24889000      13.87500000      -0.00964500       0.00513200      -0.00478400
C        6.94025000       5.52309000      13.87500000      -0.00230700       0.00034900      -0.00518600
C        6.00230000       7.79728000      13.87500000       0.00825800      -0.00878000       0.00550300
C        5.06450000      10.07148000      13.87500000       0.00969800      -0.00338400       0.00495000
C        4.12655000      12.34567000      13.87500000       0.01140500      -0.01182600      -0.00033600
C       11.25440000       0.64975000      13.87500000       0.01326900       0.00942300       0.00080000
C       10.31661000       2.92395000      13.87500000       0.00181900       0.01870900       0.00246000
C        9.37866000       5.19814000      13.87500000       0.00189800       0.00057200      -0.00428100
C        8.44086000       7.47234000      13.87500000      -0.00217200       0.00163500       0.00405700
C        7.50291000       9.74653000      13.87500000       0.00082600      -0.00016300      -0.00824900
C        6.56504000      12.02087000      13.87500000       0.00674800      -0.01551700      -0.00368300
C       13.69289000       0.32494000      13.87500000       0.00455500       0.02399300       0.00315600
C       12.75494000       2.59914000      13.87500000       0.01870700      -0.01269400       0.00842600
C       11.81715000       4.87334000      13.87500000      -0.00262400       0.01806800       0.00164500
C       10.87919000       7.14753000      13.87500000      -0.00179100       0.00096700       0.00194900
C        9.94140000       9.42173000      13.87500000      -0.01056400      -0.00555400      -0.00565800
C        9.00344000      11.69592000      13.87500000      -0.00544300      -0.00867300      -0.01145400
C       -6.00238000      10.82949000      13.87500000       0.01790300       0.00789800      -0.00951300
C       -6.94025000      13.10383000      13.87500000      -0.02535000       0.01660600       0.00185600
C        0.18761000       1.40791000      13.87500000      -0.02226800      -0.19294200       0.05139800
C       -0.75035000       3.68210000      13.87500000      -0.14391000       0.11423800       0.05220800
C       -1.68814000       5.95630000      13.87500000       0.00479600      -0.02669600       0.00650200
C       -2.62609000       8.23049000      13.87500000       0.02006200       0.00664100      -0.00008100
C       -3.56389000      10.50469000      13.87500000       0.00709300       0.00139400       0.00508000
C       -4.50184000      12.77888000      13.87500000       0.01940200       0.00814500      -0.00493400
C        2.62601000       1.08296000      13.87500000       0.15024100      -0.10683500      -0.03646800
C        1.68822000       3.35716000      13.87500000       0.18355400       0.07614900       0.04953300
C        0.75027000       5.63135000      13.87500000       0.03633700       0.19157600      -0.02666000
C       -0.18753000       7.90555000      13.87500000       0.00544300       0.00867300      -0.01145400
C       -1.12548000      10.17974000      13.87500000       0.01056400       0.00555400      -0.00565800
C       -2.06327000      12.45394000      13.87500000       0.00179100      -0.00096700       0.00194900
C        5.06442000       0.75802000      13.87500000       0.00262400      -0.01806800       0.00164500
C        4.12663000       3.03221000      13.87500000      -0.01870700       0.01269400       0.00842600
C        3.18875000       5.30655000      13.87500000      -0.00455500      -0.02399300       0.00315600
C        2.25080000       7.58074000      13.87500000      -0.00674800       0.01551700      -0.00368300
C        1.31301000       9.85494000      13.87500000      -0.00082600       0.00016300      -0.00824900
C        0.37505000      12.12913000      13.87500000       0.00217200      -0.00163500       0.00405700
C        7.50291000       0.43321000      13.87500000      -0.00189800      -0.00057200      -0.00428100
C        6.56512000       2.70741000      13.87500000      -0.00181900      -0.01870900       0.00246000
C        5.62716000       4.98160000      13.87500000      -0.01326900      -0.00942300       0.00080000
C        4.68937000       7.25580000      13.87500000      -0.01140500       0.01182600      -0.00033600
C        3.75141000       9.52999000      13.87500000      -0.00969800       0.00338400       0.00495000
C        2.81362000      11.80419000      13.87500000      -0.00825800       0.00878000       0.00550300
C        9.94132000       0.10827000      13.87500000       0.00230700      -0.00034900      -0.00518600
C        9.00352000       2.38246000      13.87500000       0.00964500      -0.00513200      -0.00478400
C        8.06573000       4.65666000      13.87500000      -0.00224200      -0.00524800      -0.00414000
C        7.12778000       6.93085000      13.87500000      -0.00323700       0.00524900       0.00091000
C        6.18990000       9.20519000      13.87500000      -0.01900200       0.00802300       0.00291000
C        5.25195000      11.47938000      13.87500000      -0.01146200       0.01241400      -0.00455800
C        4.31415000      13.75358000      13.87500000      -0.01186200       0.01163500      -0.00720400
C       11.44201000       2.05766000      13.87500000       0.00935200      -0.01093300       0.00425900
C       10.50406000       4.33185000      13.87500000       0.00944200      -0.01257600       0.00127600
C        9.56626000       6.60605000      13.87500000       0.00348100      -0.00161400      -0.00041800
C        8.62831000       8.88024000      13.87500000      -0.00029900       0.00495200      -0.00158700
C        7.69052000      11.15444000      13.87500000       0.00122300       0.01047100      -0.01267000
C        6.75256000      13.42863000      13.87500000       0.02197400       0.01846400      -0.00020300
C       13.88042000       1.73271000      13.87500000      -0.17762900      -0.06500900      -0.03636100
C       12.94263000       4.00691000      13.87500000       0.03074400       0.02054800       0.00709900
C       12.00467000       6.28110000      13.87500000       0.02241100      -0.00082500       0.00129500
C       11.06688000       8.55530000      13.87500000       0.00528000       0.01078300       0.00314000
C        0.00000000       0.00000000      10.12500000      -0.03633700      -0.19157600       0.02666000
C       -0.93779000       2.27420000      10.12500000      -0.18355400      -0.07614900      -0.04953300
C       -1.87575000       4.54839000      10.12500000      -0.15024100       0.10683500       0.03646800
C       -2.81354000       6.82259000      10.12500000      -0.01940200      -0.00814500       0.00493400
C       -3.75150000       9.09678000      10.12500000      -0.00709300      -0.00139400      -0.00508000
C       -4.68929000      11.37098000      10.12500000      -0.02006200      -0.00664100       0.00008100
C       -5.62724000      13.64517000      10.12500000      -0.00479600       0.02669600      -0.00650200
C        1.50061000       1.94925000      10.12500000       0.14391000      -0.11423800      -0.05220800
C        0.56274000       4.22359000      10.12500000       0.02226800       0.19294200      -0.05139800
C       -0.37521000       6.49778000      10.12500000       0.02535000      -0.01660600      -0.00185600
C       -1.31301000       8.77198000      10.12500000      -0.01790300      -0.00789800       0.00951300
C       -2.25096000      11.04617000      10.12500000      -0.00528000      -0.01078300      -0.00314000
C       -3.18875000      13.32037000      10.12500000      -0.02241100       0.00082500      -0.00129500
C        3.93910000       1.62445000      10.12500000      -0.03074400      -0.02054800      -0.00709900
C        3.00115000       3.89864000      10.12500000       0.17762900       0.06500900       0.03636100
C        2.06335000       6.17284000      10.12500000      -0.02197400      -0.01846400       0.00020300
C        1.12540000       8.44703000      10.12500000      -0.00122300      -0.01047100       0.01267000
C        0.18761000      10.72123000      10.12500000       0.00029900      -0.00495200       0.00158700
C       -0.75035000      12.99542000      10.12500000      -0.00348100       0.00161400       0.00041800
C        6.37751000       1.29950000      10.12500000      -0.00944200       0.01257600      -0.00127600
C        5.43972000       3.57370000      10.12500000      -0.00935200       0.01093300      -0.00425900
C        4.50176000       5.84789000      10.12500000       0.01186200      -0.01163500       0.00720400
C        3.56389000       8.12223000      10.12500000       0.01146200      -0.01241400       0.00455800
C        2.62593000      10.39642000      10.12500000       0.01900200      -0.00802300      -0.00291000
C        1.68814000      12.67062000      10.12500000       0.00323700      -0.00524900      -0.00091000
C        8.81600000       0.97469000      10.12500000       0.00224200       0.00524800       0.00414000
C        7.87804000       3.24889000      10.12500000      -0.00964500       0.00513200       0.00478400
C        6.94025000       5.52309000      10.12500000      -0.00230700       0.00034900       0.00518600
C        6.00230000       7.79728000      10.12500000       0.00825800      -0.00878000      -0.00550300
C        5.06450000      10.07148000      10.12500000       0.00969800      -0.00338400      -0.00495000
C        4.12655000      12.34567000      10.12500000       0.01140500      -0.01182600       0.00033600
C       11.25440000       0.64975000      10.12500000       0.01326900       0.00942300      -0.00080000
C       10.31661000       2.92395000      10.12500000       0.00181900       0.01870900      -0.00246000
C        9.37866000       5.19814000      10.12500000       0.00189800       0.00057200       0.00428100
C        8.44086000       7.47234000      10.12500000      -0.00217200       0.00163500      -0.00405700
C        7.50291000       9.74653000      10.12500000       0.00082600      -0.00016300       0.00824900
C        6.56504000      12.02087000      10.12500000       0.00674800      -0.01551700       0.00368300
C       13.69289000       0.32494000      10.12500000       0.00455500       0.02399300      -0.00315600
C       12.75494000       2.59914000      10.12500000       0.01870700      -0.01269400      -0.00842600
C       11.81715000       4.87334000      10.12500000      -0.00262400       0.01806800      -0.00164500
C       10.87919000       7.14753000      10.12500000      -0.00179100       0.00096700      -0.00194900
C        9.94140000       9.42173000      10.12500000      -0.01056400      -0.00555400       0.00565800
C        9.00344000      11.69592000      10.12500000      -0.00544300      -0.00867300       0.01145400
C       -6.00238000      10.82949000      10.12500000       0.01790300       0.00789800       0.00951300
C       -6.94025000      13.10383000      10.12500000      -0.02535000       0.01660600      -0.00185600
C        0.18761000       1.40791000      10.12500000      -0.02226800      -0.19294200      -0.05139800
C       -0.75035000       3.68210000      10.12500000      -0.14391000       0.11423800      -0.05220800
C       -1.68814000       5.95630000      10.12500000       0.00479600      -0.02669600      -0.00650200
C       -2.62609000       8.23049000      10.12500000       0.02006200       0.00664100       0.00008100
C       -3.56389000      10.50469000      10.12500000       0.00709300       0.00139400      -0.00508000
C       -4.50184000      12.77888000      10.12500000       0.01940200       0.00814500       0.00493400
C        2.62601000       1.08296000      10.12500000       0.15024100      -0.10683500       0.03646800
C        1.68822000       3.35716000      10.12500000       0.18355400       0.07614900      -0.04953300
C        0.75027000       5.63135000      10.12500000       0.03633700       0.19157600       0.02666000
C       -0.18753000       7.90555000      10.12500000       0.00544300       0.00867300       0.01145400
C       -1.12548000      10.17974000      10.12500000       0.01056400       0.00555400       0.00565800
C       -2.06327000      12.45394000      10.12500000       0.00179100      -0.00096700      -0.00194900
C        5.06442000       0.75802000      10.12500000       0.00262400      -0.01806800      -0.00164500
C        4.12663000       3.03221000      10.12500000      -0.01870700       0.01269400      -0.00842600
C        3.18875000       5.30655000      10.12500000      -0.00455500      -0.02399300      -0.00315600
C        2.25080000       7.58074000      10.12500000      -0.00674800       0.01551700       0.00368300
C        1.31301000       9.85494000      10.12500000      -0.00082600       0.00016300       0.00824900
C        0.37505000      12.12913000      10.12500000       0.00217200      -0.00163500      -0.00405700
C        7.50291000       0.43321000      10.12500000      -0.00189800      -0.00057200       0.00428100
C        6.56512000       2.70741000      10.12500000      -0.00181900      -0.01870900      -0.00246000
C        5.62716000       4.98160000      10.12500000      -0.01326900      -0.00942300      -0.00080000
C        4.68937000       7.25580000      10.12500000      -0.01140500       0.01182600       0.00033600
C        3.75141000       9.52999000      10.12500000      -0.00969800       0.00338400      -0.00495000
C        2.81362000      11.80419000      10.12500000      -0.00825800       0.00878000      -0.00550300
C        9.94132000       0.10827000      10.12500000       0.00230700      -0.00034900       0.00518600
C        9.00352000       2.38246000      10.12500000       0.00964500      -0.00513200       0.00478400
C        8.06573000       4.65666000      10.12500000      -0.00224200      -0.00524800       0.00414000
C        7.12778000       6.93085000      10.12500000      -0.00323700       0.00524900      -0.00091000
C        6.18990000       9.20519000      10.12500000      -0.01900200       0.00802300      -0.00291000
C        5.25195000      11.47938000      10.12500000      -0.01146200       0.01241400       0.00455800
C        4.31415000      13.75358000      10.12500000      -0.01186200       0.01163500       0.00720400
C       11.44201000       2.05766000      10.12500000       0.00935200      -0.01093300      -0.00425900
C       10.50406000       4.33185000      10.12500000       0.00944200      -0.01257600      -0.00127600
C        9.56626000       6.60605000      10.12500000       0.00348100      -0.00161400       0.00041800
C        8.62831000       8.88024000      10.12500000      -0.00029900       0.00495200       0.00158700
C        7.69052000      11.15444000      10.12500000       0.00122300       0.01047100       0.01267000
C        6.75256000      13.42863000      10.12500000       0.02197400       0.01846400       0.00020300
C       13.88042000       1.73271000      10.12500000      -0.17762900      -0.06500900       0.03636100
C       12.94263000       4.00691000      10.12500000       0.03074400       0.02054800      -0.00709900
C       12.00467000       6.28110000      10.12500000       0.02241100      -0.00082500      -0.00129500
C       11.06688000       8.55530000      10.12500000       0.00528000       0.01078300      -0.00314000
Li       0.37513000       2.81568000      12.00000000       0.00000000      -0.00000000      -0.00000000
173
Lattice="16.131299972 0.0 0.0 -8.065649986 13.970115572 0.0 0.0 0.0 24.0" Properties=species:S:1:pos:R:3:forces:R:3 stress="-0.00365021554058118 1.3912323841593783e-05 -0.0 1.3912323841593783e-05 -0.0036301990208144727 -0.0 -0.0 -0.0 0.00462178133413442" free_energy=-1599.59776436 energy=-1599.59267563 pbc="T T T"
C        0.00000000       0.00000000      13.87371000      -0.03371000      -0.19016600       0.00010200
C       -0.93779000       2.27420000      13.87739000      -0.18072100      -0.07774400       0.03538000
C       -1.87575000       4.54839000      13.87324000      -0.15097700       0.10720000      -0.00034000
C       -2.81354000       6.82259000      13.87476000      -0.01859600      -0.00834400       0.00276200
C       -3.75150000       9.09678000      13.87525000      -0.00640500      -0.00243200       0.00220300
C       -4.68929000      11.37098000      13.87500000      -0.02008700      -0.00663300      -0.00143700
C       -5.62724000      13.64517000      13.87531000      -0.00486200       0.02650400      -0.00986800
C        1.50061000       1.94925000      13.87752000       0.14557500      -0.11645500       0.03486600
C        0.56274000       4.22359000      13.87748000       0.02213900       0.19489200       0.03890200
C       -0.37521000       6.49778000      13.87509000       0.02515600      -0.01648800      -0.00841300
C       -1.31301000       8.77198000      13.87454000      -0.01850400      -0.00820200      -0.00719800
C       -2.25096000      11.04617000      13.87515000      -0.00527700      -0.01080400       0.00232900
C       -3.18875000      13.32037000      13.87506000      -0.02240600       0.00080800      -0.00081900
C        3.93910000       1.62445000      13.87534000      -0.03002300      -0.01991300      -0.00695500
C        3.00115000       3.89864000      13.87325000       0.17764700       0.06415300      -0.00183100
C        2.06335000       6.17284000      13.87499000      -0.02175900      -0.01841000      -0.00862500
C        1.12540000       8.44703000      13.87439000      -0.00051900      -0.01000500      -0.01124200
C        0.18761000      10.72123000      13.87492000       0.00029500      -0.00496100      -0.00312800
C       -0.75035000      12.99542000      13.87498000      -0.00348100       0.00162900       0.00024500
C        6.37751000       1.29950000      13.87506000      -0.00944800       0.01258300       0.00145700
C        5.43972000       3.57370000      13.87521000      -0.00934000       0.01091500       0.00643600
C        4.50176000       5.84789000      13.87465000       0.01217800      -0.01103700       0.00080600
C        3.56389000       8.12223000      13.87478000       0.01119900      -0.01235100       0.00028300
C        2.62593000      10.39642000      13.87514000       0.01898200      -0.00802700       0.00261400
C        1.68814000      12.67062000      13.87504000       0.00323900      -0.00524700       0.00147100
C        8.81600000       0.97469000      13.87480000       0.00219000       0.00552100      -0.00455100
C        7.87804000       3.24889000      13.87477000      -0.00962700       0.00514200      -0.00401900
C        6.94025000       5.52309000      13.87475000      -0.00230900       0.00031100      -0.00307100
C        6.00230000       7.79728000      13.87527000       0.00626100      -0.00893000       0.00173600
C        5.06450000      10.07148000      13.87524000       0.00830700      -0.00284200       0.00315300
C        4.12655000      12.34567000      13.87498000       0.01142600      -0.01182000      -0.00122100
C       11.25440000       0.64975000      13.87504000       0.01325700       0.00940500      -0.00284200
C       10.31661000       2.92395000      13.87512000       0.00182400       0.01871300       0.00216200
C        9.37866000       5.19814000      13.87479000       0.00188900       0.00058500      -0.00313500
C        8.44086000       7.47234000      13.87520000      -0.00113600       0.00173300       0.00137700
C        7.50291000       9.74653000      13.87460000       0.00083800      -0.00013500      -0.00699200
C        6.56504000      12.02087000      13.87482000       0.00717500      -0.01458300      -0.00481400
C       13.69289000       0.32494000      13.87515000       0.00457200       0.02379600      -0.01234100
C       12.75494000       2.59914000      13.87541000       0.01787000      -0.01232200      -0.00571900
C       11.81715000       4.87334000      13.87508000      -0.00264000       0.01804500       0.00459900
C       10.87919000       7.14753000      13.87509000      -0.00178200       0.00095800       0.00173300
C        9.94140000       9.42173000      13.87473000      -0.01056700      -0.00555300      -0.00457300
C        9.00344000      11.69592000      13.87445000      -0.00586000      -0.00922300      -0.00876100
C       -6.00238000      10.82949000      13.87454000       0.01850400       0.00820200      -0.00719800
C       -6.94025000      13.10383000      13.87509000      -0.02515600       0.01648800      -0.00841300
C        0.18761000       1.40791000      13.87748000      -0.02213900      -0.19489200       0.03890200
C       -0.75035000       3.68210000      13.87752000      -0.14557500       0.11645500       0.03486600
C       -1.68814000       5.95630000      13.87531000       0.00486200      -0.02650400      -0.00986800
C       -2.62609000       8.23049000      13.87500000       0.02008700       0.00663300      -0.00143700
C       -3.56389000      10.50469000      13.87525000       0.00640500       0.00243200       0.00220300
C       -4.50184000      12.77888000      13.87476000       0.01859600       0.00834400       0.00276200
C        2.62601000       1.08296000      13.87324000       0.15097700      -0.10720000      -0.00034000
C        1.68822000       3.35716000      13.87739000       0.18072100       0.07774400       0.03538000
C        0.75027000       5.63135000      13.87371000       0.03371000       0.19016600       0.00010200
C       -0.18753000       7.90555000      13.87445000       0.00586000       0.00922300      -0.00876100
C       -1.12548000      10.17974000      13.87473000       0.01056700       0.00555300      -0.00457300
C       -2.06327000      12.45394000      13.87509000       0.00178200      -0.00095800       0.00173300
C        5.06442000       0.75802000      13.87508000       0.00264000      -0.01804500       0.00459900
C        4.12663000       3.03221000      13.87541000      -0.01787000       0.01232200      -0.00571900
C        3.18875000       5.30655000      13.87515000      -0.00457200      -0.02379600      -0.01234100
C        2.25080000       7.58074000      13.87482000      -0.00717500       0.01458300      -0.00481400
C        1.31301000       9.85494000      13.87460000      -0.00083800       0.00013500      -0.00699200
C        0.37505000      12.12913000      13.87520000       0.00113600      -0.00173300       0.00137700
C        7.50291000       0.43321000      13.87479000      -0.00188900      -0.00058500      -0.00313500
C        6.56512000       2.70741000      13.87512000      -0.00182400      -0.01871300       0.00216200
C        5.62716000       4.98160000      13.87504000      -0.01325700      -0.00940500      -0.00284200
C        4.68937000       7.25580000      13.87498000      -0.01142600       0.01182000      -0.00122100
C        3.75141000       9.52999000      13.87524000      -0.00830700       0.00284200       0.00315300
C        2.81362000      11.80419000      13.87527000      -0.00626100       0.00893000       0.00173600
C        9.94132000       0.10827000      13.87475000       0.00230900      -0.00031100      -0.00307100
C        9.00352000       2.38246000      13.87477000       0.00962700      -0.00514200      -0.00401900
C        8.06573000       4.65666000      13.87480000      -0.00219000      -0.00552100      -0.00455100
C        7.12778000       6.93085000      13.87504000      -0.00323900       0.00524700       0.00147100
C        6.18990000       9.20519000      13.87514000      -0.01898200       0.00802700       0.00261400
C        5.25195000      11.47938000      13.87478000      -0.01119900       0.01235100       0.00028300
C        4.31415000      13.75358000      13.87465000      -0.01217800       0.01103700       0.00080600
C       11.44201000       2.05766000      13.87521000       0.00934000      -0.01091500       0.00643600
C       10.50406000       4.33185000      13.87506000       0.00944800      -0.01258300       0.00145700
C        9.56626000       6.60605000      13.87498000       0.00348100      -0.00162900       0.00024500
C        8.62831000       8.88024000      13.87492000      -0.00029500       0.00496100      -0.00312800
C        7.69052000      11.15444000      13.87439000       0.00051900       0.01000500      -0.01124200
C        6.75256000      13.42863000      13.87499000       0.02175900       0.01841000      -0.00862500
C       13.88042000       1.73271000      13.87325000      -0.17764700      -0.06415300      -0.00183100
C       12.94263000       4.00691000      13.87534000       0.03002300       0.01991300      -0.00695500
C       12.00467000       6.28110000      13.87506000       0.02240600      -0.00080800      -0.00081900
C       11.06688000       8.55530000      13.87515000       0.00527700       0.01080400       0.00232900
C        0.00000000       0.00000000      10.12629000      -0.03371000      -0.19016600      -0.00010200
C       -0.93779000       2.27420000      10.12261000      -0.18072100      -0.07774400      -0.03538000
C       -1.87575000       4.54839000      10.12676000      -0.15097700       0.10720000       0.00034000
C       -2.81354000       6.82259000      10.12524000      -0.01859600      -0.00834400      -0.00276200
C       -3.75150000       9.09678000      10.12475000      -0.00640500      -0.00243200      -0.00220300
C       -4.68929000      11.37098000      10.12500000      -0.02008700      -0.00663300       0.00143700
C       -5.62724000      13.64517000      10.12469000      -0.00486200       0.02650400       0.00986800
C        1.50061000       1.94925000      10.12248000       0.14557500      -0.11645500      -0.03486600
C        0.56274000       4.22359000      10.12252000       0.02213900       0.19489200      -0.03890200
C       -0.37521000       6.49778000      10.12491000       0.02515600      -0.01648800       0.00841300
C       -1.31301000       8.77198000      10.12546000      -0.01850400      -0.00820200       0.00719800
C       -2.25096000      11.04617000      10.12485000      -0.00527700      -0.01080400      -0.00232900
C       -3.18875000      13.32037000      10.12494000      -0.02240600       0.00080800       0.00081900
C        3.93910000       1.62445000      10.12466000      -0.03002300      -0.01991300       0.00695500
C        3.00115000       3.89864000      10.12675000       0.17764700       0.06415300       0.00183100
C        2.06335000       6.17284000      10.12501000      -0.02175900      -0.01841000       0.00862500
C        1.12540000       8.44703000      10.12561000      -0.00051900      -0.01000500       0.01124200
C        0.18761000      10.72123000      10.12508000       0.00029500      -0.00496100       0.00312800
C       -0.75035000      12.99542000      10.12502000      -0.00348100       0.00162900      -0.00024500
C        6.37751000       1.29950000      10.12494000      -0.00944800       0.01258300      -0.00145700