173
Lattice="16.131299972 0.0 0.0 -8.065649986 13.970115572 0.0 0.0 0.0 24.0" Properties=species:S:1:pos:R:3:forces:R:3 stress="-0.0035793432044567757 1.634027089156237e-05 -1.185886733917819e-06 1.634027089156237e-05 -0.003559645001655488 4.930792209447775e-07 -1.185886733917819e-06 4.930792209447775e-07 0.0014452276796073945" free_energy=-1598.85866296 energy=-1598.85354088 pbc="T T T"
C        0.00000000       0.00000000      13.67500000      -0.04698700      -0.32610100       0.18758800
C       -0.93779000       2.27420000      13.67500000      -0.26746000       0.19670600       0.18337600
C       -1.87575000       4.54839000      13.67500000      -0.01629900      -0.02399800       0.02593500
C       -2.81354000       6.82259000      13.67500000      -0.01773400      -0.00835600       0.02165800
C       -3.75150000       9.09678000      13.67500000      -0.02014900      -0.01254300       0.02428800
C       -4.68929000      11.37098000      13.67500000      -0.02314200      -0.02016800       0.02166100
C       -5.62724000      13.64517000      13.67500000       0.05256100      -0.03803700       0.02799800
C        1.50061000       1.94925000      13.67500000       0.29617400       0.12665700       0.18344800
C        0.56274000       4.22359000      13.67500000       0.01330700       0.06664300       0.03626200
C       -0.37521000       6.49778000      13.67500000      -0.01476300      -0.01273300       0.02882700
C       -1.31301000       8.77198000      13.67500000      -0.01553400      -0.01131900       0.01722300
C       -2.25096000      11.04617000      13.67500000      -0.00329500      -0.00634200       0.02799500
C       -3.18875000      13.32037000      13.67500000      -0.01003000       0.01014800       0.02589800
C        3.93910000       1.62445000      13.67500000      -0.00383000       0.02228400       0.02195000
C        3.00115000       3.89864000      13.67500000       0.02096300      -0.02682100       0.02613500
C        2.06335000       6.17284000      13.67500000       0.02537500      -0.00784200       0.02459500
C        1.12540000       8.44703000      13.67500000       0.00194700      -0.00307500       0.01658500
C        0.18761000      10.72123000      13.67500000      -0.00308700       0.00160000       0.01709100
C       -0.75035000      12.99542000      13.67500000      -0.00733900       0.01680100       0.02222500
C        6.37751000       1.29950000      13.67500000      -0.00361500       0.00342200       0.02484200
C        5.43972000       3.57370000      13.67500000      -0.00926400       0.00175600       0.02483700
C        4.50176000       5.84789000      13.67500000       0.00859900      -0.00447100       0.02031900
C        3.56389000       8.12223000      13.67500000       0.01329800      -0.01263000       0.02212600
C        2.62593000      10.39642000      13.67500000       0.01862400      -0.00549000       0.02863900
C        1.68814000      12.67062000      13.67500000      -0.00851300       0.00633900       0.02375100
C        8.81600000       0.97469000      13.67500000       0.00005700       0.01089300       0.02081700
C        7.87804000       3.24889000      13.67500000      -0.00430300       0.00429700       0.01344400
C        6.94025000       5.52309000      13.67500000       0.00379700      -0.00033500       0.01325800
C        6.00230000       7.79728000      13.67500000       0.00550900       0.00187300       0.02530900
C        5.06450000      10.07148000      13.67500000       0.00727000       0.00627900       0.02513500
C        4.12655000      12.34567000      13.67500000       0.00721800      -0.01083100       0.02166200
C       11.25440000       0.64975000      13.67500000       0.00007700       0.02051500       0.02609000
C       10.31661000       2.92395000      13.67500000      -0.00218500       0.00311900       0.02750200
C        9.37866000       5.19814000      13.67500000       0.00107600      -0.00620400       0.01325200
C        8.44086000       7.47234000      13.67500000      -0.00429400       0.00773500       0.02778400
C        7.50291000       9.74653000      13.67500000      -0.00156400      -0.00362900       0.01845500
C        6.56504000      12.02087000      13.67500000       0.02545800      -0.02139700       0.01342400
C       13.69289000       0.32494000      13.67500000      -0.06679300      -0.03801100       0.02816300
C       12.75494000       2.59914000      13.67500000       0.01002800       0.02355100       0.02195500
C       11.81715000       4.87334000      13.67500000      -0.00121200      -0.00331500       0.02216100
C       10.87919000       7.14753000      13.67500000      -0.00657300      -0.00828300       0.02080400
C        9.94140000       9.42173000      13.67500000      -0.01366900      -0.00586500       0.02531200
C        9.00344000      11.69592000      13.67500000      -0.02161700      -0.00441900       0.01360800
C       -6.00238000      10.82949000      13.67500000       0.02530700       0.01131000       0.02707900
C       -6.94025000      13.10383000      13.67500000       0.09983900      -0.11081600       0.02459600
C        0.18761000       1.40791000      13.67500000       0.01046400      -0.00683400       3.80127400
C       -0.75035000       3.68210000      13.67500000       0.01482700       0.14291000       0.03376400
C       -1.68814000       5.95630000      13.67500000       0.03484800       0.01224100       0.04729900
C       -2.62609000       8.23049000      13.67500000       0.01635800      -0.00914300       0.03892700
C       -3.56389000      10.50469000      13.67500000      -0.00641900      -0.01382200       0.04569800
C       -4.50184000      12.77888000      13.67500000      -0.00032400      -0.00099100       0.02196100
C        2.62601000       1.08296000      13.67500000       0.13477000      -0.07187700       0.02353000
C        1.68822000       3.35716000      13.67500000       0.03829700       0.14532000       0.02917200
C        0.75027000       5.63135000      13.67500000       0.01832500       0.00584400       0.04054600
C       -0.18753000       7.90555000      13.67500000      -0.01257100       0.00751800       0.02319400
C       -1.12548000      10.17974000      13.67500000       0.00768600       0.01439000       0.02326700
C       -2.06327000      12.45394000      13.67500000      -0.00682000      -0.00093000       0.04450900
C        5.06442000       0.75802000      13.67500000       0.00897900      -0.04061400       0.03993000
C        4.12663000       3.03221000      13.67500000       0.00163200      -0.00926900       0.04412900
C        3.18875000       5.30655000      13.67500000      -0.02383000       0.00709200       0.04032100
C        2.25080000       7.58074000      13.67500000       0.01282100       0.00436600       0.03923600
C        1.31301000       9.85494000      13.67500000      -0.00325500      -0.00991100       0.02326800
C        0.37505000      12.12913000      13.67500000       0.00432300       0.00337200       0.04086700
C        7.50291000       0.43321000      13.67500000      -0.00512700      -0.01225400       0.03806900
C        6.56512000       2.70741000      13.67500000      -0.00739600      -0.02133000       0.03768200
C        5.62716000       4.98160000      13.67500000      -0.00998200      -0.00470700       0.03728600
C        4.68937000       7.25580000      13.67500000      -0.01613600       0.01191100       0.03819100
C        3.75141000       9.52999000      13.67500000      -0.00920600       0.02227700       0.04424500
C        2.81362000      11.80419000      13.67500000      -0.01151900       0.01698400       0.04566000
C        9.94132000       0.10827000      13.67500000       0.01647100       0.00592200       0.03756200
C        9.00352000       2.38246000      13.67500000       0.01586900      -0.00930700       0.03678400
C        8.06573000       4.65666000      13.67500000      -0.00601300      -0.00130000       0.03131800
C        7.12778000       6.93085000      13.67500000      -0.00814500       0.02113400       0.03774200
C        6.18990000       9.20519000      13.67500000      -0.02449300       0.00937600       0.03739500
C        5.25195000      11.47938000      13.67500000      -0.01449700       0.02213700       0.03169700
C        4.31415000      13.75358000      13.67500000       0.00268500       0.00618700       0.01917300
C       11.44201000       2.05766000      13.67500000       0.00505900      -0.01922200       0.04275300
C       10.50406000       4.33185000      13.67500000       0.01901600      -0.00928300       0.03776800
C        9.56626000       6.60605000      13.67500000       0.00318200       0.01005400       0.03725400
C        8.62831000       8.88024000      13.67500000      -0.00035300       0.00914400       0.04031900
C        7.69052000      11.15444000      13.67500000       0.00186500       0.00037900       0.02286300
C        6.75256000      13.42863000      13.67500000      -0.12575900      -0.05505100       0.02454700
C       13.88042000       1.73271000      13.67500000      -0.14745500      -0.03594500       0.02356900
C       12.94263000       4.00691000      13.67500000       0.01380000       0.01491900       0.04130700
C       12.00467000       6.28110000      13.67500000       0.01762200       0.00637200       0.03860700
C       11.06688000       8.55530000      13.67500000       0.00072200       0.02083300       0.03739000
C        0.00000000       0.00000000      10.32500000      -0.03444600      -0.28652000      -0.21663600
C       -0.93779000       2.27420000      10.32500000      -0.23382200       0.17068300      -0.21257800
C       -1.87575000       4.54839000      10.32500000       0.00242800      -0.03004400      -0.03159800
C       -2.81354000       6.82259000      10.32500000       0.01477100       0.01650100      -0.02001900
C       -3.75150000       9.09678000      10.32500000       0.00267100       0.01049700      -0.02516900
C       -4.68929000      11.37098000      10.32500000       0.01479700       0.00790300      -0.02259500
C       -5.62724000      13.64517000      10.32500000       0.16953800      -0.11887400       0.01944800
C        1.50061000       1.94925000      10.32500000       0.26529400       0.11492500      -0.21235100
C        0.56274000       4.22359000      10.32500000       0.03023800       0.20758300       0.01108000
C       -0.37521000       6.49778000      10.32500000       0.01846200       0.00301800      -0.02896300
C       -1.31301000       8.77198000      10.32500000       0.00132300       0.00819200      -0.01344100
C       -2.25096000      11.04617000      10.32500000       0.00886800       0.00217200      -0.02714200
C       -3.18875000      13.32037000      10.32500000      -0.00106100      -0.01868400      -0.02676600
C        3.93910000       1.62445000      10.32500000      -0.01867200       0.01297200      -0.02715500
C        3.00115000       3.89864000      10.32500000      -0.00363300      -0.04438500      -0.03138000
C        2.06335000       6.17284000      10.32500000      -0.01160500       0.01037600      -0.02630300
C        1.12540000       8.44703000      10.32500000      -0.00387800       0.00978200      -0.01260800
C        0.18761000      10.72123000      10.32500000       0.00361500       0.00318100      -0.01332200
C       -0.75035000      12.99542000      10.32500000       0.00272800      -0.00081400      -0.02080900
C        6.37751000       1.29950000      10.32500000       0.01134900      -0.02326100      -0.02349600
C        5.43972000       3.57370000      10.32500000      -0.01742800      -0.00402400      -0.02659800
C        4.50176000       5.84789000      10.32500000      -0.01541900       0.01798400      -0.02139000
C        3.56389000       8.12223000      10.32500000      -0.00752000       0.00602500      -0.02066600
C        2.62593000      10.39642000      10.32500000       0.01218600       0.00426300      -0.02798000
C        1.68814000      12.67062000      10.32500000      -0.00007000       0.00135900      -0.02447000
C        8.81600000       0.97469000      10.32500000       0.00567000      -0.01361700      -0.02198900
C        7.87804000       3.24889000      10.32500000       0.00148100      -0.01125100      -0.01665000
C        6.94025000       5.52309000      10.32500000      -0.00425100       0.00277800      -0.01651900
C        6.00230000       7.79728000      10.32500000      -0.01322000       0.00723200      -0.02380900
C        5.06450000      10.07148000      10.32500000      -0.01727100       0.01458600      -0.02500000
C        4.12655000      12.34567000      10.32500000      -0.01128900       0.01319200      -0.02259500
C       11.25440000       0.64975000      10.32500000       0.01149300      -0.01068000      -0.02658600
C       10.31661000       2.92395000      10.32500000      -0.00461300      -0.01344800      -0.02780200
C        9.37866000       5.19814000      10.32500000       0.00830800      -0.00021300      -0.01652000
C        8.44086000       7.47234000      10.32500000      -0.00331600       0.01455500      -0.02792100
C        7.50291000       9.74653000      10.32500000      -0.00314000       0.01544400      -0.01941900
C        6.56504000      12.02087000      10.32500000       0.03602000       0.00987700      -0.01905900
C       13.69289000       0.32494000      10.32500000      -0.19236500      -0.08671100       0.01961200
C       12.75494000       2.59914000      10.32500000       0.03482900       0.01810200      -0.02713800
C       11.81715000       4.87334000      10.32500000       0.01646300       0.00213400      -0.02234600
C       10.87919000       7.14753000      10.32500000       0.01585300       0.00971200      -0.02164200
C        9.94140000       9.42173000      10.32500000       0.00911000       0.01457100      -0.02487500
C        9.00344000      11.69592000      10.32500000      -0.01719600       0.02180200      -0.01886800
C       -3.00123000       5.41482000      10.32500000      -0.00169100      -0.02319700      -0.03857900
C       -3.93902000       7.68901000      10.32500000      -0.01267300      -0.00912900      -0.03867900
C       -4.87698000       9.96321000      10.32500000      -0.02383300      -0.02521900      -0.03713100
C       -5.81477000      12.23740000      10.32500000       0.00749500       0.03504000      -0.02460400
C        1.31309000       0.54148000      10.32500000       0.21343400      -0.18328700      -0.20114700
C        0.37513000       2.81568000      10.32500000       0.03521600       0.27806400      -0.20027700
C       -0.56266000       5.08987000      10.32500000       0.03901600      -0.03144700      -0.04585900
C       -1.50061000       7.36407000      10.32500000      -0.01197700      -0.01640000      -0.03706400
C       -2.43841000       9.63826000      10.32500000      -0.02681600      -0.00227200      -0.03743800
C       -3.37636000      11.91246000      10.32500000      -0.02349700       0.00092500      -0.03831300
C        3.75150000       0.21654000      10.32500000      -0.04084500      -0.01906200      -0.03019300
C        2.81370000       2.49073000      10.32500000       0.16848200       0.06681800       0.00413000
C        1.87575000       4.76493000      10.32500000      -0.02032400      -0.02119200      -0.04304900
C        0.93787000       7.03926000      10.32500000       0.00146600      -0.03259400      -0.03575800
C       -0.00008000       9.31346000      10.32500000       0.00097000      -0.01063400      -0.03082900
C       -0.93787000      11.58765000      10.32500000      -0.01667000       0.00003000      -0.03675800
C       -1.87567000      13.86185000      10.32500000      -0.01359600       0.00977200      -0.03767100
C        5.25203000       2.16593000      10.32500000       0.00944800      -0.00341800      -0.04671900
C        4.31424000       4.44012000      10.32500000       0.00969300      -0.02521400      -0.04557400
C        3.37628000       6.71432000      10.32500000       0.01571000      -0.01627600      -0.03831800
C        2.43849000       8.98851000      10.32500000       0.00654800       0.00132900      -0.03695600
C        1.50053000      11.26271000      10.32500000       0.01075400       0.01180300      -0.03726000
C        0.56274000      13.53690000      10.32500000       0.00429300       0.01134600      -0.03835900
C        7.69060000       1.84098000      10.32500000      -0.00232600       0.00181600      -0.04113200
C        6.75264000       4.11518000      10.32500000       0.00138100       0.01119800      -0.02257100
C        5.81485000       6.38937000      10.32500000      -0.01559800      -0.00599000      -0.03944000
C        4.87690000       8.66357000      10.32500000       0.00873900       0.00993500      -0.03786800
C        3.93902000      10.93790000      10.32500000       0.00737800      -0.00274800      -0.04010300
C        3.00123000      13.21210000      10.32500000       0.00479100       0.01950900      -0.03549100
C       10.12892000       1.51618000      10.32500000       0.00931700       0.01937400      -0.04450600
C        9.19113000       3.79037000      10.32500000      -0.00667600      -0.00972000      -0.02342700
C        8.25318000       6.06457000      10.32500000       0.00963600      -0.00808000      -0.02312900
C        7.31538000       8.33876000      10.32500000      -0.01688400      -0.01088700      -0.04504600
C        6.37743000      10.61296000      10.32500000       0.01177000      -0.00526300      -0.02534300
C        5.43964000      12.88715000      10.32500000       0.00100100       0.03454800      -0.02457900
C       12.56749000       1.19123000      10.32500000       0.03492600      -0.02026600      -0.03300700
C       11.62954000       3.46543000      10.32500000       0.01368700       0.02699300      -0.04673400
C       10.69174000       5.73962000      10.32500000      -0.01059100       0.00980500      -0.03856800
C        9.75379000       8.01382000      10.32500000      -0.01064200       0.00097200      -0.04473400
C        8.81600000      10.28801000      10.32500000      -0.02354400       0.00543500      -0.02996900
C        7.87804000      12.56221000      10.32500000      -0.03511000      -0.18287200       0.01334800
C       15.00590000       0.86629000      10.32500000      -0.24613100      -0.09641700      -0.20111800
C       14.06803000       3.14062000      10.32500000      -0.14984600       0.11520600       0.00874000
Li       0.18761000       1.40791000      12.00000000      -0.00271500       0.00499500      -3.36602400
173
Lattice="16.131299972 0.0 0.0 -8.065649986 13.970115572 0.0 0.0 0.0 24.0" Properties=species:S:1:pos:R:3:forces:R:3 stress="-0.0036069369163023056 1.6970663313276578e-05 -7.801886407354073e-07 1.6970663313276578e-05 -0.0035843488947757338 4.2442262056006164e-07 -7.801886407354073e-07 4.2442262056006164e-07 0.0023331385263464207" free_energy=-1599.19761345 energy=-1599.19246047 pbc="T T T"
C        0.00000000       0.00000000      13.68405000      -0.01845000      -0.11114000       1.01158300
C       -0.93779000       2.27420000      13.68385000      -0.09387000       0.06587800       1.01924400
C       -1.87575000       4.54839000      13.67625000      -0.00755300      -0.01576900      -0.05217400
C       -2.81354000       6.82259000      13.67604000      -0.01710700      -0.00499100       0.04028800
C       -3.75150000       9.09678000      13.67617000      -0.02190600      -0.01236500       0.03591600
C       -4.68929000      11.37098000      13.67604000      -0.02136700      -0.01751600       0.02646300
C       -5.62724000      13.64517000      13.67635000       0.04567400      -0.03205700       0.08767100
C        1.50061000       1.94925000      13.68385000       0.09547600       0.04332500       1.01948800
C        0.56274000       4.22359000      13.67675000       0.01436000       0.06330000       0.09826900
C       -0.37521000       6.49778000      13.67639000      -0.01004200      -0.01305000       0.03436900
C       -1.31301000       8.77198000      13.67583000      -0.01438500      -0.01010300       0.02547700
C       -2.25096000      11.04617000      13.67635000      -0.00485600      -0.00701800       0.03638300
C       -3.18875000      13.32037000      13.67625000      -0.01255000       0.00540200       0.03381800
C        3.93910000       1.62445000      13.67606000      -0.00026000       0.01251800      -0.06043400
C        3.00115000       3.89864000      13.67626000       0.01959500      -0.02075300      -0.05572600
C        2.06335000       6.17284000      13.67619000       0.02437300      -0.00950500       0.03429400
C        1.12540000       8.44703000      13.67580000       0.00160500      -0.00342600       0.02621300
C        0.18761000      10.72123000      13.67582000      -0.00307300       0.00162700       0.02661400
C       -0.75035000      12.99542000      13.67607000      -0.00454100       0.01447700       0.03477100
C        6.37751000       1.29950000      13.67620000      -0.00493700      -0.00167800       0.04022300
C        5.43972000       3.57370000      13.67620000      -0.00991400      -0.00017500       0.05047600
C        4.50176000       5.84789000      13.67598000       0.00847300      -0.00205400       0.03797200
C        3.56389000       8.12223000      13.67607000       0.01019200      -0.01317600       0.03446800
C        2.62593000      10.39642000      13.67638000       0.01671100      -0.00324300       0.03569200
C        1.68814000      12.67062000      13.67615000      -0.00674700       0.00932100       0.03689000
C        8.81600000       0.97469000      13.67600000      -0.00211500       0.00912600       0.03199000
C        7.87804000       3.24889000      13.67565000      -0.00404600       0.00320200       0.02943400
C        6.94025000       5.52309000      13.67564000       0.00380300      -0.00029700       0.02974300
C        6.00230000       7.79728000      13.67622000       0.00208800       0.00521800       0.03340600
C        5.06450000      10.07148000      13.67621000       0.00482900       0.00903000       0.04176200
C        4.12655000      12.34567000      13.67605000       0.00616100      -0.00810600       0.02707700
C       11.25440000       0.64975000      13.67626000       0.00220000       0.02150600       0.03058800
C       10.31661000       2.92395000      13.67633000      -0.00095200       0.00303100       0.04151600
C        9.37866000       5.19814000      13.67564000       0.00102800      -0.00623500       0.02974100
C        8.44086000       7.47234000      13.67634000      -0.00605400       0.00842500       0.03484500
C        7.50291000       9.74653000      13.67589000      -0.00148900      -0.00237800       0.04052000
C        6.56504000      12.02087000      13.67565000       0.01509300      -0.01987700      -0.06798200
C       13.69289000       0.32494000      13.67636000      -0.05898900      -0.03621800       0.08722200
C       12.75494000       2.59914000      13.67606000       0.00403400       0.01483700      -0.06024500
C       11.81715000       4.87334000      13.67607000       0.00337300      -0.00317800       0.04723900
C       10.87919000       7.14753000      13.67600000      -0.00484900      -0.00902100       0.03098700
C        9.94140000       9.42173000      13.67622000      -0.01687500      -0.00614900       0.03826500
C        9.00344000      11.69592000      13.67566000      -0.01140300      -0.00559700      -0.06900600
C       -6.00238000      10.82949000      13.67631000       0.02191200       0.00845100       0.01497300
C       -6.94025000      13.10383000      13.67619000       0.09151800      -0.11471700      -0.00019800
C        0.18761000       1.40791000      13.85838000      -0.00176600      -0.00502700      -1.58485900
C       -0.75035000       3.68210000      13.67663000       0.00055800       0.14258900       0.00048300
C       -1.68814000       5.95630000      13.67728000       0.03324100       0.01345900       0.01976900
C       -2.62609000       8.23049000      13.67688000       0.01229700      -0.01033000       0.02285000
C       -3.56389000      10.50469000      13.67720000      -0.00772200      -0.01299300       0.02771200
C       -4.50184000      12.77888000      13.67606000       0.00199300      -0.00059800       0.02566100
C        2.62601000       1.08296000      13.67614000       0.13979400      -0.06291400      -0.00141900
C        1.68822000       3.35716000      13.67641000       0.04582800       0.14013400       0.00505600
C        0.75027000       5.63135000      13.67696000       0.01838600       0.00514100       0.03476700
C       -0.18753000       7.90555000      13.67612000      -0.01036900       0.01160900       0.01777900
C       -1.12548000      10.17974000      13.67612000       0.01022600       0.01040700       0.01812100
C       -2.06327000      12.45394000      13.67715000      -0.00668300      -0.00479100       0.02598300
C        5.06442000       0.75802000      13.67693000       0.00962100      -0.03098800       0.02154200
C        4.12663000       3.03221000      13.67713000       0.00372400      -0.00735000       0.04549000
C        3.18875000       5.30655000      13.67695000      -0.01960600       0.00520600       0.02095100
C        2.25080000       7.58074000      13.67689000       0.01523400       0.00330400       0.02241900
C        1.31301000       9.85494000      13.67612000      -0.00672600      -0.00971900       0.01811000
C        0.37505000      12.12913000      13.67697000       0.00164400       0.00613100       0.02179200
C        7.50291000       0.43321000      13.67684000      -0.00507600      -0.00901400       0.02343300
C        6.56512000       2.70741000      13.67682000      -0.00614800      -0.02256000       0.02049700
C        5.62716000       4.98160000      13.67680000      -0.00951300      -0.00839300       0.01826900
C        4.68937000       7.25580000      13.67684000      -0.01218500       0.01129500       0.02353800
C        3.75141000       9.52999000      13.67713000      -0.01125100       0.02244100       0.02650800
C        2.81362000      11.80419000      13.67720000      -0.01038800       0.01809200       0.02753900
C        9.94132000       0.10827000      13.67681000       0.01626800       0.00607200       0.02725800
C        9.00352000       2.38246000      13.67677000       0.01839400      -0.00618900       0.02046400
C        8.06573000       4.65666000      13.67651000      -0.00580200      -0.00041700       0.00653200
C        7.12778000       6.93085000      13.67682000      -0.01001100       0.02082200       0.02247600
C        6.18990000       9.20519000      13.67680000      -0.01823900       0.00662600       0.02629400
C        5.25195000      11.47938000      13.67653000      -0.01142700       0.01273400       0.01023800
C        4.31415000      13.75358000      13.67592000       0.00136300       0.00578800       0.02826800
C       11.44201000       2.05766000      13.67706000       0.00189800      -0.01428200       0.02406800
C       10.50406000       4.33185000      13.67682000       0.02016100      -0.00633400       0.02031900
C        9.56626000       6.60605000      13.67680000      -0.00051300       0.01203000       0.02045100
C        8.62831000       8.88024000      13.67695000      -0.00039500       0.00605900       0.02870800
C        7.69052000      11.15444000      13.67610000       0.00004100      -0.00301200       0.02979000
C        6.75256000      13.42863000      13.67618000      -0.11861600      -0.06089400      -0.00021000
C       13.88042000       1.73271000      13.67614000      -0.14848800      -0.02388200      -0.00136400
C       12.94263000       4.00691000      13.67699000       0.00892800       0.01140300       0.04287700
C       12.00467000       6.28110000      13.67686000       0.01516300       0.00453900       0.02152700
C       11.06688000       8.55530000      13.67680000      -0.00091300       0.01942200       0.02777500
C        0.00000000       0.00000000      10.31455000      -0.05219300      -0.41989600      -0.31914000
C       -0.93779000       2.27420000      10.31474000      -0.33977700       0.25876600      -0.32681900
C       -1.87575000       4.54839000      10.32348000       0.00764500      -0.03161500      -0.02323000
C       -2.81354000       6.82259000      10.32403000       0.01599000       0.01985700      -0.03224700
C       -3.75150000       9.09678000      10.32379000      -0.00031400       0.01115100      -0.03415400
C       -4.68929000      11.37098000      10.32391000       0.01679900       0.01047600      -0.02785300
C       -5.62724000      13.64517000      10.32594000       0.18740900      -0.13260000      -0.03423400
C        1.50061000       1.94925000      10.31476000       0.39457000       0.16556600      -0.32731900
C        0.56274000       4.22359000      10.32553000       0.03316800       0.23007600      -0.04664700
C       -0.37521000       6.49778000      10.32360000       0.02289700       0.00237000      -0.03572900
C       -1.31301000       8.77198000      10.32435000       0.00171600       0.00836700      -0.03023700
C       -2.25096000      11.04617000      10.32369000       0.00798700       0.00111200      -0.03421600
C       -3.18875000      13.32037000      10.32371000      -0.00395400      -0.02519400      -0.03239900
C        3.93910000       1.62445000      10.32369000      -0.02191900       0.01308100      -0.01953500
C        3.00115000       3.89864000      10.32349000      -0.00415800      -0.04847200      -0.02683300
C        2.06335000       6.17284000      10.32373000      -0.01236700       0.00816200      -0.03457600
C        1.12540000       8.44703000      10.32439000      -0.00433100       0.01026200      -0.02909500
C        0.18761000      10.72123000      10.32436000       0.00361700       0.00316900      -0.03025700
C       -0.75035000      12.99542000      10.32400000       0.00444200      -0.00121700      -0.03180600