193
Lattice="17.043199539 0.0 0.0 -8.52159977 14.759843763 0.0 0.0 0.0 24.0" Properties=species:S:1:pos:R:3:forces:R:3 stress="-0.0033366483636059307 1.2214633359353535e-05 -0.0 1.2214633359353535e-05 -0.0033443878349220264 -0.0 -0.0 -0.0 0.004920556134481326" free_energy=-1785.33264082 energy=-1785.32902735 pbc="T T T"
C        0.00000000       0.00000000      13.87500000      -0.09499200      -0.16118200      -0.05605500
C       -2.13040000       3.68996000      13.87500000       0.01038300      -0.01755600      -0.01959400
C       12.78240000       7.37992000      13.87500000      -0.00048900       0.00280500      -0.02735600
C       -6.39120000      11.06988000      13.87500000      -0.01133100      -0.00079800      -0.02745900
C        4.26080000       0.00000000      13.87500000      -0.02338600       0.00189100      -0.01959500
C        2.13040000       3.68996000      13.87500000       0.09720500       0.17165900       0.03426700
C       -0.00000000       7.37992000      13.87500000      -0.01423700       0.00518200      -0.02698700
C       -2.13040000      11.06988000      13.87500000       0.00035800       0.00596500      -0.02739500
C        8.52160000       0.00000000      13.87500000      -0.00035300       0.00272000      -0.02735700
C        6.39120000       3.68996000      13.87500000       0.00860800      -0.00800600      -0.02699000
C        4.26080000       7.37992000      13.87500000      -0.00451500      -0.00435900      -0.02793500
C        2.13040000      11.06988000      13.87500000      -0.00440100       0.00303100      -0.02751000
C       12.78240000       0.00000000      13.87500000       0.00196700      -0.00847900      -0.02745900
C       10.65200000       3.68996000      13.87500000       0.00197900       0.00503900      -0.02739400
C        8.52160000       7.37992000      13.87500000       0.00179900      -0.00054300      -0.02751100
C        6.39120000      11.06988000      13.87500000      -0.00295200      -0.00164000      -0.02775800
C       -0.00009000       2.46002000      13.87500000      -0.18995600       0.00141400       0.03421300
C       -2.13049000       6.14998000      13.87500000       0.00992600       0.01457800      -0.02698900
C       -4.26089000       9.83995000      13.87500000       0.00194300       0.00231700      -0.02739500
C       -6.39129000      13.52991000      13.87500000       0.01731900       0.02085900      -0.01959800
C        4.26071000       2.46002000      13.87500000       0.19439500       0.00138700      -0.05603900
C        2.13031000       6.14998000      13.87500000       0.01734200      -0.01811700      -0.01959700
C       -0.00009000       9.83995000      13.87500000       0.00511800       0.00146300      -0.02735600
C       -2.13049000      13.52991000      13.87500000       0.01365200       0.00906500      -0.02745900
C        8.52151000       2.46002000      13.87500000       0.01017300       0.00138700      -0.02775800
C        6.39111000       6.14998000      13.87500000       0.01364100      -0.00630000      -0.02745900
C        4.26071000       9.83995000      13.87500000       0.00194000       0.00043900      -0.02739400
C        2.13031000      13.52991000      13.87500000       0.00686100      -0.00219300      -0.02751100
C       12.78231000       2.46002000      13.87500000       0.01330700       0.00139000      -0.02793600
C       10.65191000       6.14998000      13.87500000       0.00685900       0.00496500      -0.02751000
C        8.52151000       9.83995000      13.87500000       0.00510000       0.00130100      -0.02735700
C        6.39111000      13.52991000      13.87500000       0.00990700      -0.01182000      -0.02698700
C        2.13049000       1.22994000      13.87500000       0.09016900      -0.16213300       0.03419100
C        0.00009000       4.91990000      13.87500000      -0.10198700       0.17074900      -0.05604000
C       -2.13031000       8.60986000      13.87500000      -0.00987900       0.01122900      -0.02774900
C       -4.26071000      12.29982000      13.87500000      -0.01144800       0.01393900      -0.02792900
C        6.39129000       1.22994000      13.87500000       0.00169200       0.01761700      -0.02698100
C        4.26089000       4.91990000      13.87500000      -0.03030400       0.00766000      -0.01959000
C        2.13049000       8.60986000      13.87500000      -0.01827800       0.01040900      -0.02744900
C        0.00009000      12.29982000      13.87500000      -0.00512600       0.01017400      -0.02750200
C       10.65208000       1.22994000      13.87500000      -0.00494600       0.00458600      -0.02738600
C        8.52168000       4.91990000      13.87500000      -0.00726900       0.00689700      -0.02734800
C        6.39129000       8.60986000      13.87500000      -0.00658000       0.00364100      -0.02738600
C        4.26089000      12.29982000      13.87500000      -0.00742400       0.00682100      -0.02734800
C       14.91288000       1.22994000      13.87500000       0.00342400       0.02716900      -0.01958600
C       12.78248000       4.91990000      13.87500000      -0.00496100       0.01808800      -0.02744900
C       10.65208000       8.60986000      13.87500000      -0.01132600       0.00658900      -0.02750200
C        8.52168000      12.29982000      13.87500000      -0.02119700       0.00440900      -0.02698000
C       15.62290000       2.46002000      13.87500000      -0.19089100      -0.00389100      -0.05603800
C       -3.55069000       6.14998000      13.87500000      -0.01017500      -0.01161900      -0.02745900
C       -5.68109000       9.83995000      13.87500000      -0.00163500      -0.00402600      -0.02735600
C        9.23170000      13.52991000      13.87500000      -0.01384100       0.01557300      -0.01959600
C        2.84050000       2.46002000      13.87500000       0.19346700      -0.00387300       0.03426600
C        0.71010000       6.14998000      13.87500000      -0.01388100      -0.02340600      -0.01959600
C       -1.42030000       9.83995000      13.87500000       0.00152600      -0.00487700      -0.02739500
C       -3.55069000      13.52991000      13.87500000      -0.00644600      -0.01712800      -0.02698700
C        7.10130000       2.46002000      13.87500000      -0.00984000      -0.00394500      -0.02793600
C        4.97090000       6.14998000      13.87500000      -0.00644500       0.00926900      -0.02699000
C        2.84050000       9.83995000      13.87500000      -0.00163700      -0.00386500      -0.02735700
C        0.71010000      13.52991000      13.87500000      -0.00339000      -0.00753200      -0.02751000
C       11.36210000       2.46002000      13.87500000      -0.00669700      -0.00394300      -0.02775900
C        9.23170000       6.14998000      13.87500000      -0.00338600      -0.00037300      -0.02751100
C        7.10130000       9.83995000      13.87500000       0.00153500      -0.00299900      -0.02739400
C        4.97090000      13.52991000      13.87500000      -0.01017500       0.00374100      -0.02745900
C        0.71002000       1.23009000      13.87500000      -0.09021100      -0.17341700       0.03422100
C       -1.42038000       4.92005000      13.87500000       0.03029700      -0.00365100      -0.01959400
C       -3.55078000       8.61001000      13.87500000       0.00657000      -0.00769300      -0.02738700
C       -5.68118000      12.29997000      13.87500000       0.02118500      -0.00691200      -0.02698000
C        4.97082000       1.23009000      13.87500000      -0.00344600       0.01586000      -0.01958400
C        2.84042000       4.92005000      13.87500000       0.10197000       0.15944400      -0.05603700
C        0.71002000       8.61001000      13.87500000       0.01827200      -0.00092200      -0.02745100
C       -1.42038000      12.29997000      13.87500000       0.00742000      -0.00451700      -0.02734800
C        9.23162000       1.23009000      13.87500000       0.00494300      -0.00675900      -0.02738600
C        7.10122000       4.92005000      13.87500000       0.00496300       0.00674500      -0.02745000
C        4.97082000       8.61001000      13.87500000       0.00988900      -0.00009700      -0.02775000
C        2.84042000      12.29997000      13.87500000       0.00512900      -0.00117700      -0.02750300
C       13.49242000       1.23009000      13.87500000      -0.00168300       0.00627000      -0.02698200
C       11.36202000       4.92005000      13.87500000       0.00727100      -0.00445300      -0.02734800
C        9.23162000       8.61001000      13.87500000       0.01132700      -0.00475900      -0.02750200
C        7.10122000      12.29997000      13.87500000       0.01146400       0.00262700      -0.02792700
C        2.84059000       0.00000000      13.87500000       0.09153100      -0.16646400      -0.05605200
C        0.71019000       3.68996000      13.87500000      -0.10067900       0.16639700       0.03426400
C       -1.42021000       7.37992000      13.87500000       0.00102700      -0.00966500      -0.02793700
C       -3.55061000      11.06988000      13.87500000      -0.00053500      -0.00694700      -0.02775800
C        7.10139000       0.00000000      13.87500000      -0.00543800      -0.01380700      -0.02745800
C        4.97099000       3.68996000      13.87500000      -0.01383400      -0.02285700      -0.01959300
C        2.84059000       7.37992000      13.87500000       0.01077700      -0.00012400      -0.02698700
C        0.71019000      11.06988000      13.87500000       0.00092700      -0.00230300      -0.02751100
C       11.36219000       0.00000000      13.87500000      -0.00312400      -0.00261300      -0.02735600
C        9.23179000       3.68996000      13.87500000      -0.00544900      -0.00029400      -0.02739500
C        7.10139000       7.37992000      13.87500000      -0.00298200      -0.00251600      -0.02735600
C        4.97099000      11.06988000      13.87500000      -0.00382100       0.00064600      -0.02739500
C       15.62299000       0.00000000      13.87500000       0.01992300      -0.00340100      -0.01958900
C       13.49259000       3.68996000      13.87500000      -0.01209000      -0.01333600      -0.02698900
C       11.36219000       7.37992000      13.87500000      -0.00527600      -0.00588000      -0.02751100
C        9.23179000      11.06988000      13.87500000       0.00786000      -0.00611700      -0.02745800
C        0.00000000       0.00000000      10.12500000      -0.09499200      -0.16118200       0.05605500
C       -2.13040000       3.68996000      10.12500000       0.01038300      -0.01755600       0.01959400
C       12.78240000       7.37992000      10.12500000      -0.00048900       0.00280500       0.02735600
C       -6.39120000      11.06988000      10.12500000      -0.01133100      -0.00079800       0.02745900
C        4.26080000       0.00000000      10.12500000      -0.02338600       0.00189100       0.01959500
C        2.13040000       3.68996000      10.12500000       0.09720500       0.17165900      -0.03426700
C       -0.00000000       7.37992000      10.12500000      -0.01423700       0.00518200       0.02698700
C       -2.13040000      11.06988000      10.12500000       0.00035800       0.00596500       0.02739500
C        8.52160000       0.00000000      10.12500000      -0.00035300       0.00272000       0.02735700
C        6.39120000       3.68996000      10.12500000       0.00860800      -0.00800600       0.02699000
C        4.26080000       7.37992000      10.12500000      -0.00451500      -0.00435900       0.02793500
C        2.13040000      11.06988000      10.12500000      -0.00440100       0.00303100       0.02751000
C       12.78240000       0.00000000      10.12500000       0.00196700      -0.00847900       0.02745900
C       10.65200000       3.68996000      10.12500000       0.00197900       0.00503900       0.02739400
C        8.52160000       7.37992000      10.12500000       0.00179900      -0.00054300       0.02751100
C        6.39120000      11.06988000      10.12500000      -0.00295200      -0.00164000       0.02775800
C       -0.00009000       2.46002000      10.12500000      -0.18995600       0.00141400      -0.03421300
C       -2.13049000       6.14998000      10.12500000       0.00992600       0.01457800       0.02698900
C       -4.26089000       9.83995000      10.12500000       0.00194300       0.00231700       0.02739500
C       -6.39129000      13.52991000      10.12500000       0.01731900       0.02085900       0.01959800
C        4.26071000       2.46002000      10.12500000       0.19439500       0.00138700       0.05603900
C        2.13031000       6.14998000      10.12500000       0.01734200      -0.01811700       0.01959700
C       -0.00009000       9.83995000      10.12500000       0.00511800       0.00146300       0.02735600
C       -2.13049000      13.52991000      10.12500000       0.01365200       0.00906500       0.02745900
C        8.52151000       2.46002000      10.12500000       0.01017300       0.00138700       0.02775800
C        6.39111000       6.14998000      10.12500000       0.01364100      -0.00630000       0.02745900
C        4.26071000       9.83995000      10.12500000       0.00194000       0.00043900       0.02739400
C        2.13031000      13.52991000      10.12500000       0.00686100      -0.00219300       0.02751100
C       12.78231000       2.46002000      10.12500000       0.01330700       0.00139000       0.02793600
C       10.65191000       6.14998000      10.12500000       0.00685900       0.00496500       0.02751000
C        8.52151000       9.83995000      10.12500000       0.00510000       0.00130100       0.02735700
C        6.39111000      13.52991000      10.12500000       0.00990700      -0.01182000       0.02698700
C        2.13049000       1.22994000      10.12500000       0.09016900      -0.16213300      -0.03419100
C        0.00009000       4.91990000      10.12500000      -0.10198700       0.17074900       0.05604000
C       -2.13031000       8.60986000      10.12500000      -0.00987900       0.01122900       0.02774900
C       -4.26071000      12.29982000      10.12500000      -0.01144800       0.01393900       0.02792900
C        6.39129000       1.22994000      10.12500000       0.00169200       0.01761700       0.02698100
C        4.26089000       4.91990000      10.12500000      -0.03030400       0.00766000       0.01959000
C        2.13049000       8.60986000      10.12500000      -0.01827800       0.01040900       0.02744900
C        0.00009000      12.29982000      10.12500000      -0.00512600       0.01017400       0.02750200
C       10.65208000       1.22994000      10.12500000      -0.00494600       0.00458600       0.02738600
C        8.52168000       4.91990000      10.12500000      -0.00726900       0.00689700       0.02734800
C        6.39129000       8.60986000      10.12500000      -0.00658000       0.00364100       0.02738600
C        4.26089000      12.29982000      10.12500000      -0.00742400       0.00682100       0.02734800
C       14.91288000       1.22994000      10.12500000       0.00342400       0.02716900       0.01958600
C       12.78248000       4.91990000      10.12500000      -0.00496100       0.01808800       0.02744900
C       10.65208000       8.60986000      10.12500000      -0.01132600       0.00658900       0.02750200
C        8.52168000      12.29982000      10.12500000      -0.02119700       0.00440900       0.02698000
C       15.62290000       2.46002000      10.12500000      -0.19089100      -0.00389100       0.05603800
C       -3.55069000       6.14998000      10.12500000      -0.01017500      -0.01161900       0.02745900
C       -5.68109000       9.83995000      10.12500000      -0.00163500      -0.00402600       0.02735600
C        9.23170000      13.52991000      10.12500000      -0.01384100       0.01557300       0.01959600
C        2.84050000       2.46002000      10.12500000       0.19346700      -0.00387300      -0.03426600
C        0.71010000       6.14998000      10.12500000      -0.01388100      -0.02340600       0.01959600
C       -1.42030000       9.83995000      10.12500000       0.00152600      -0.00487700       0.02739500
C       -3.55069000      13.52991000      10.12500000      -0.00644600      -0.01712800       0.02698700
C        7.10130000       2.46002000      10.12500000      -0.00984000      -0.00394500       0.02793600
C        4.97090000       6.14998000      10.12500000      -0.00644500       0.00926900       0.02699000
C        2.84050000       9.83995000      10.12500000      -0.00163700      -0.00386500       0.02735700
C        0.71010000      13.52991000      10.12500000      -0.00339000      -0.00753200       0.02751000
C       11.36210000       2.46002000      10.12500000      -0.00669700      -0.00394300       0.02775900
C        9.23170000       6.14998000      10.12500000      -0.00338600      -0.00037300       0.02751100
C        7.10130000       9.83995000      10.12500000       0.00153500      -0.00299900       0.02739400
C        4.97090000      13.52991000      10.12500000      -0.01017500       0.00374100       0.02745900
C        0.71002000       1.23009000      10.12500000      -0.09021100      -0.17341700      -0.03422100
C       -1.42038000       4.92005000      10.12500000       0.03029700      -0.00365100       0.01959400
C       -3.55078000       8.61001000      10.12500000       0.00657000      -0.00769300       0.02738700
C       -5.68118000      12.29997000      10.12500000       0.02118500      -0.00691200       0.02698000
C        4.97082000       1.23009000      10.12500000      -0.00344600       0.01586000       0.01958400
C        2.84042000       4.92005000      10.12500000       0.10197000       0.15944400       0.05603700
C        0.71002000       8.61001000      10.12500000       0.01827200      -0.00092200       0.02745100
C       -1.42038000      12.29997000      10.12500000       0.00742000      -0.00451700       0.02734800
C        9.23162000       1.23009000      10.12500000       0.00494300      -0.00675900       0.02738600
C        7.10122000       4.92005000      10.12500000       0.00496300       0.00674500       0.02745000
C        4.97082000       8.61001000      10.12500000       0.00988900      -0.00009700       0.02775000
C        2.84042000      12.29997000      10.12500000       0.00512900      -0.00117700       0.02750300
C       13.49242000       1.23009000      10.12500000      -0.00168300       0.00627000       0.02698200
C       11.36202000       4.92005000      10.12500000       0.00727100      -0.00445300       0.02734800
C        9.23162000       8.61001000      10.12500000       0.01132700      -0.00475900       0.02750200
C        7.10122000      12.29997000      10.12500000       0.01146400       0.00262700       0.02792700
C        2.84059000       0.00000000      10.12500000       0.09153100      -0.16646400       0.05605200
C        0.71019000       3.68996000      10.12500000      -0.10067900       0.16639700      -0.03426400
C       -1.42021000       7.37992000      10.12500000       0.00102700      -0.00966500       0.02793700
C       -3.55061000      11.06988000      10.12500000      -0.00053500      -0.00694700       0.02775800
C        7.10139000       0.00000000      10.12500000      -0.00543800      -0.01380700       0.02745800
C        4.97099000       3.68996000      10.12500000      -0.01383400      -0.02285700       0.01959300
C        2.84059000       7.37992000      10.12500000       0.01077700      -0.00012400       0.02698700
C        0.71019000      11.06988000      10.12500000       0.00092700      -0.00230300       0.02751100
C       11.36219000       0.00000000      10.12500000      -0.00312400      -0.00261300       0.02735600
C        9.23179000       3.68996000      10.12500000      -0.00544900      -0.00029400       0.02739500
C        7.10139000       7.37992000      10.12500000      -0.00298200      -0.00251600       0.02735600
C        4.97099000      11.06988000      10.12500000      -0.00382100       0.00064600       0.02739500
C       15.62299000       0.00000000      10.12500000       0.01992300      -0.00340100       0.01958900
C       13.49259000       3.68996000      10.12500000      -0.01209000      -0.01333600       0.02698900
C       11.36219000       7.37992000      10.12500000      -0.00527600      -0.00588000       0.02751100
C        9.23179000      11.06988000      10.12500000       0.00786000      -0.00611700       0.02745800
Li       1.42030000       2.46002000      12.00000000       0.00000000      -0.00024700       0.00000000
193
Lattice="17.043199539 0.0 0.0 -8.52159977 14.759843763 0.0 0.0 0.0 24.0" Properties=species:S:1:pos:R:3:forces:R:3 stress="-0.003358849411566698 1.2214633359353535e-05 -0.0 1.2214633359353535e-05 -0.0033665888828827927 -0.0 -0.0 -0.0 0.004891065003861527" free_energy=-1785.34040066 energy=-1785.3367872 pbc="T T T"
C        0.00000000       0.00000000      13.87230000      -0.09500400      -0.16120300      -0.00384300
C       -2.13040000       3.68996000      13.87405000       0.01033100      -0.01740100      -0.03381800
C       12.78240000       7.37992000      13.87368000      -0.00049000       0.00282100      -0.02961000
C       -6.39120000      11.06988000      13.87368000      -0.01133900      -0.00077900      -0.02872600
C        4.26080000       0.00000000      13.87405000      -0.02322700       0.00192300      -0.03381800
C        2.13040000       3.68996000      13.87665000       0.09714000       0.17154800       0.02226800
C       -0.00000000       7.37992000      13.87370000      -0.01422300       0.00520700      -0.02680900
C       -2.13040000      11.06988000      13.87368000       0.00036300       0.00597700      -0.02936800
C        8.52160000       0.00000000      13.87368000      -0.00033900       0.00272700      -0.02961000
C        6.39120000       3.68996000      13.87370000       0.00862200      -0.00798100      -0.02680800
C        4.26080000       7.37992000      13.87365000      -0.00450700      -0.00434400      -0.03046300
C        2.13040000      11.06988000      13.87367000      -0.00439500       0.00303300      -0.02949600
C       12.78240000       0.00000000      13.87368000       0.00198600      -0.00847600      -0.02872700
C       10.65200000       3.68996000      13.87368000       0.00198700       0.00505000      -0.02936800
C        8.52160000       7.37992000      13.87367000       0.00179800      -0.00053700      -0.02949600
C        6.39120000      11.06988000      13.87366000      -0.00294400      -0.00162600      -0.03015700
C       -0.00009000       2.46002000      13.87665000      -0.18982800       0.00141700       0.02225100
C       -2.13049000       6.14998000      13.87370000       0.00989800       0.01457800      -0.02681300
C       -4.26089000       9.83995000      13.87368000       0.00193000       0.00231800      -0.02936900
C       -6.39129000      13.52991000      13.87405000       0.01721200       0.02073600      -0.03383000
C        4.26071000       2.46002000      13.87230000       0.19442000       0.00138500      -0.00383200
C        2.13031000       6.14998000      13.87405000       0.01723400      -0.01799400      -0.03382000
C       -0.00009000       9.83995000      13.87368000       0.00510600       0.00147200      -0.02961100
C       -2.13049000      13.52991000      13.87368000       0.01364100       0.00908100      -0.02872600
C        8.52151000       2.46002000      13.87366000       0.01015800       0.00138700      -0.03015100
C        6.39111000       6.14998000      13.87368000       0.01363000      -0.00631600      -0.02872900
C        4.26071000       9.83995000      13.87368000       0.00192700       0.00043700      -0.02936900
C        2.13031000      13.52991000      13.87367000       0.00685700      -0.00219000      -0.02949600
C       12.78231000       2.46002000      13.87365000       0.01329000       0.00139000      -0.03046900
C       10.65191000       6.14998000      13.87367000       0.00685400       0.00496100      -0.02949600
C        8.52151000       9.83995000      13.87368000       0.00508800       0.00129200      -0.02960800
C        6.39111000      13.52991000      13.87370000       0.00988000      -0.01182000      -0.02680400
C        2.13049000       1.22994000      13.87665000       0.09010700      -0.16202300       0.02224500
C        0.00009000       4.91990000      13.87230000      -0.10200100       0.17076900      -0.00383100
C       -2.13031000       8.60986000      13.87366000      -0.00987200       0.01121700      -0.03014700
C       -4.26071000      12.29982000      13.87365000      -0.01144000       0.01392400      -0.03046400
C        6.39129000       1.22994000      13.87370000       0.00170500       0.01759300      -0.02680400
C        4.26089000       4.91990000      13.87405000      -0.03014400       0.00762800      -0.03382400
C        2.13049000       8.60986000      13.87368000      -0.01828600       0.01039100      -0.02872400
C        0.00009000      12.29982000      13.87367000      -0.00512800       0.01016800      -0.02949100
C       10.65208000       1.22994000      13.87368000      -0.00493900       0.00457600      -0.02936400
C        8.52168000       4.91990000      13.87368000      -0.00725500       0.00689000      -0.02960600
C        6.39129000       8.60986000      13.87368000      -0.00657500       0.00362900      -0.02936400
C        4.26089000      12.29982000      13.87368000      -0.00742600       0.00680500      -0.02960400
C       14.91288000       1.22994000      13.87406000       0.00337100       0.02701500      -0.03382000
C       12.78248000       4.91990000      13.87368000      -0.00494200       0.01808500      -0.02872300
C       10.65208000       8.60986000      13.87367000      -0.01132100       0.00658700      -0.02949100
C        8.52168000      12.29982000      13.87370000      -0.02118400       0.00438500      -0.02680300
C       15.62290000       2.46002000      13.87230000      -0.19091300      -0.00389300      -0.00384600
C       -3.55069000       6.14998000      13.87368000      -0.01016300      -0.01163500      -0.02872600
C       -5.68109000       9.83995000      13.87368000      -0.00162200      -0.00403500      -0.02961000
C        9.23170000      13.52991000      13.87405000      -0.01373400       0.01545100      -0.03382400
C        2.84050000       2.46002000      13.87665000       0.19333800      -0.00387000       0.02226100
C        0.71010000       6.14998000      13.87405000      -0.01377300      -0.02328300      -0.03382600
C       -1.42030000       9.83995000      13.87368000       0.00154000      -0.00487900      -0.02936800
C       -3.55069000      13.52991000      13.87370000      -0.00641700      -0.01712800      -0.02680700
C        7.10130000       2.46002000      13.87365000      -0.00982300      -0.00394400      -0.03046900
C        4.97090000       6.14998000      13.87370000      -0.00641600       0.00926900      -0.02681000
C        2.84050000       9.83995000      13.87368000      -0.00162400      -0.00385600      -0.02960800
C        0.71010000      13.52991000      13.87367000      -0.00338500      -0.00752800      -0.02949600
C       11.36210000       2.46002000      13.87366000      -0.00668200      -0.00394300      -0.03015100
C        9.23170000       6.14998000      13.87367000      -0.00338100      -0.00037700      -0.02949600
C        7.10130000       9.83995000      13.87368000       0.00154800      -0.00299700      -0.02936900
C        4.97090000      13.52991000      13.87368000      -0.01016200       0.00375700      -0.02872800
C        0.71002000       1.23009000      13.87665000      -0.09014900      -0.17330800       0.02221300
C       -1.42038000       4.92005000      13.87405000       0.03013800      -0.00368300      -0.03382500
C       -3.55078000       8.61001000      13.87368000       0.00656500      -0.00770600      -0.02936300
C       -5.68118000      12.29997000      13.87370000       0.02117200      -0.00693700      -0.02680400
C        4.97082000       1.23009000      13.87406000      -0.00339300       0.01570600      -0.03381600
C        2.84042000       4.92005000      13.87230000       0.10198600       0.15945600      -0.00381900
C        0.71002000       8.61001000      13.87368000       0.01828100      -0.00094100      -0.02872100
C       -1.42038000      12.29997000      13.87368000       0.00742200      -0.00453300      -0.02960600
C        9.23162000       1.23009000      13.87368000       0.00493600      -0.00677000      -0.02936400
C        7.10122000       4.92005000      13.87368000       0.00494400       0.00674200      -0.02872300
C        4.97082000       8.61001000      13.87366000       0.00988100      -0.00011100      -0.03015200
C        2.84042000      12.29997000      13.87367000       0.00513100      -0.00118300      -0.02949100
C       13.49242000       1.23009000      13.87370000      -0.00169600       0.00624500      -0.02680300
C       11.36202000       4.92005000      13.87368000       0.00725800      -0.00446000      -0.02960500
C        9.23162000       8.61001000      13.87367000       0.01132100      -0.00476200      -0.02949100
C        7.10122000      12.29997000      13.87365000       0.01145700       0.00261100      -0.03045800
C        2.84059000       0.00000000      13.87230000       0.09154100      -0.16648600      -0.00386100
C        0.71019000       3.68996000      13.87665000      -0.10061200       0.16628500       0.02226700
C       -1.42021000       7.37992000      13.87365000       0.00101800      -0.00965000      -0.03046900
C       -3.55061000      11.06988000      13.87366000      -0.00054400      -0.00693300      -0.03015200
C        7.10139000       0.00000000      13.87368000      -0.00545900      -0.01380400      -0.02872700
C        4.97099000       3.68996000      13.87405000      -0.01378200      -0.02270200      -0.03382500