197
Lattice="17.219999313 0.0 0.0 -8.609999657 14.912956858 0.0 0.0 0.0 24.0" Properties=species:S:1:pos:R:3:forces:R:3 stress="-0.0032748636647688127 5.9138298967743874e-05 -0.0 5.9138298967743874e-05 -0.0032066002794590275 -0.0 -0.0 -0.0 0.004766615553400541" free_energy=-1822.64155608 energy=-1822.63736098 pbc="T T T"
C        0.00000000       0.00000000      13.87500000      -0.16514100      -0.09673800       0.03040200
C       -1.23002000       2.13047000      13.87500000      -0.16399100       0.09369200      -0.05912400
C       14.76004000       4.26078000      13.87500000      -0.01762600      -0.00159700      -0.03067300
C       13.53001000       6.39125000      13.87500000      -0.00102600      -0.00662600      -0.03081800
C       -4.92001000       8.52171000      13.87500000      -0.00512100       0.00071700      -0.03081900
C       11.06996000      10.65218000      13.87500000      -0.01092100      -0.01570700      -0.03067100
C        9.84002000      12.78249000      13.87500000       0.00087700      -0.19012500      -0.05913200
C        2.46005000       0.00000000      13.87500000       0.16593800      -0.09721400       0.03122100
C        1.23002000       2.13047000      13.87500000       0.00003900       0.18959900       0.03122100
C        0.00009000       4.26078000      13.87500000       0.01793800      -0.00878200      -0.02256500
C       -1.22994000       6.39125000      13.87500000      -0.01482200      -0.00731600      -0.03067600
C       -2.45996000       8.52171000      13.87500000      -0.01020100      -0.00709400      -0.03027400
C       -3.68999000      10.65218000      13.87500000      -0.01176100      -0.01638100      -0.03067900
C       -4.91993000      12.78249000      13.87500000       0.00009000       0.02438200      -0.02256500
C        4.91993000       0.00000000      13.87500000      -0.01429100      -0.01087800      -0.02326200
C        3.68990000       2.13047000      13.87500000       0.17121400       0.09612400      -0.05903100
C        2.45996000       4.26078000      13.87500000      -0.01822600      -0.00511300      -0.02326400
C        1.22994000       6.39125000      13.87500000       0.00667200      -0.01233100      -0.03105300
C       -0.00009000       8.52171000      13.87500000       0.00197800      -0.00306500      -0.03074500
C       -1.23011000      10.65218000      13.87500000       0.00076100      -0.00498800      -0.03075400
C       -2.46005000      12.78249000      13.87500000      -0.00537000       0.00955200      -0.03105200
C        7.37998000       0.00000000      13.87500000       0.00182100       0.01430300      -0.03082200
C        6.14995000       2.13047000      13.87500000       0.00143600       0.01366300      -0.03020000
C        4.92001000       4.26078000      13.87500000       0.01056800      -0.00274300      -0.03020800
C        3.68999000       6.39125000      13.87500000       0.01458000      -0.00765000      -0.03082200
C        2.45996000       8.52171000      13.87500000       0.00465900      -0.00671100      -0.03023900
C        1.22994000      10.65218000      13.87500000       0.00015400      -0.00674000      -0.03066300
C        0.00000000      12.78249000      13.87500000      -0.00244100       0.00631400      -0.03024100
C        9.84002000       0.00000000      13.87500000       0.00289300       0.01187700      -0.03071700
C        8.61000000       2.13047000      13.87500000      -0.00123600       0.00395700      -0.03043500
C        7.38006000       4.26078000      13.87500000       0.00409300       0.00824900      -0.03127900
C        6.15004000       6.39125000      13.87500000       0.00448700      -0.00528600      -0.03043300
C        4.92001000       8.52171000      13.87500000       0.01302500      -0.00521200      -0.03071800
C        3.68999000      10.65218000      13.87500000       0.01044500      -0.00623200      -0.03054300
C        2.46005000      12.78249000      13.87500000       0.00508600       0.00787700      -0.03053800
C       12.30007000       0.00000000      13.87500000      -0.00927100       0.01503400      -0.03112600
C       11.07005000       2.13047000      13.87500000      -0.00254100       0.00317000      -0.03065500
C        9.84011000       4.26078000      13.87500000      -0.01037600       0.00696700      -0.03102000
C        8.61009000       6.39125000      13.87500000      -0.00425700      -0.00236100      -0.03100900
C        7.38006000       8.52171000      13.87500000      -0.00049800       0.00058200      -0.03065900
C        6.15004000      10.65218000      13.87500000       0.00671700      -0.01624300      -0.03112900
C        4.92010000      12.78249000      13.87500000       0.00596300       0.00718600      -0.03080300
C       14.75995000       0.00000000      13.87500000       0.02391400      -0.01235400      -0.02268300
C       13.52993000       2.13047000      13.87500000       0.00080400       0.01525500      -0.03000300
C       12.29999000       4.26078000      13.87500000      -0.00592700       0.00800900      -0.03106600
C       11.06996000       6.39125000      13.87500000       0.00056100      -0.00094400      -0.03057800
C        9.83994000       8.52171000      13.87500000       0.00250000      -0.00503700      -0.03106300
C        8.60991000      10.65218000      13.87500000       0.01597100      -0.01407600      -0.03000800
C        7.37998000      12.78249000      13.87500000       0.00255800       0.02587300      -0.02268700
C       -0.00000000       1.42031000      13.87500000      -0.16741200       0.09488900       0.03093900
C       -1.23002000       3.55078000      13.87500000       0.00224600      -0.02821100      -0.02282100
C       -2.45996000       5.68109000      13.87500000       0.01006400       0.01001900      -0.03111700
C       -3.68999000       7.81156000      13.87500000       0.01001600       0.00705700      -0.03035600
C       -4.92001000       9.94202000      13.87500000       0.01186800       0.00530100      -0.03111900
C       -6.14995000      12.07234000      13.87500000      -0.02265000       0.01718100      -0.02281400
C       -7.37998000      14.20280000      13.87500000      -0.00267400      -0.19053000       0.03095200
C        2.46005000       1.42031000      13.87500000       0.16029100       0.09467400       0.03145500
C        1.23002000       3.55078000      13.87500000      -0.00128500       0.18569000      -0.05926500
C        0.00009000       5.68109000      13.87500000       0.00792400       0.00837400      -0.02996800
C       -1.22994000       7.81156000      13.87500000       0.00009800      -0.00001900      -0.03054800
C       -2.45996000       9.94202000      13.87500000      -0.00195300       0.00261000      -0.03054800
C       -3.68990000      12.07234000      13.87500000       0.00798800       0.01111000      -0.02997400
C       -4.91993000      14.20280000      13.87500000       0.16085700      -0.09648500      -0.05925300
C        4.91993000       1.42031000      13.87500000      -0.02129100       0.01147000      -0.02295800
C        3.68990000       3.55078000      13.87500000       0.00180300      -0.02715500      -0.02296300
C        2.45996000       5.68109000      13.87500000      -0.01343000       0.00930400      -0.03066400
C        1.22994000       7.81156000      13.87500000      -0.00087100       0.00753600      -0.03095500
C       -0.00009000       9.94202000      13.87500000       0.00016800       0.00088600      -0.03153800
C       -1.23002000      12.07234000      13.87500000       0.00412800       0.00243400      -0.03095900
C       -2.46005000      14.20280000      13.87500000      -0.00047600      -0.01396100      -0.03066400
C        7.37998000       1.42031000      13.87500000       0.00069900      -0.01547600      -0.03065600
C        6.14995000       3.55078000      13.87500000      -0.00818700      -0.01069500      -0.03081800
C        4.92001000       5.68109000      13.87500000      -0.01403200       0.01087200      -0.03065300
C        3.68999000       7.81156000      13.87500000      -0.00661400       0.00113000      -0.03045900
C        2.45996000       9.94202000      13.87500000      -0.00277700       0.00037700      -0.03068500
C        1.23002000      12.07234000      13.87500000      -0.00226400       0.00390100      -0.03069000
C        0.00000000      14.20280000      13.87500000      -0.00343100      -0.00452200      -0.03045800
C        9.84002000       1.42031000      13.87500000      -0.00083400      -0.01325200      -0.03055100
C        8.61000000       3.55078000      13.87500000      -0.00147400      -0.00954900      -0.03073100
C        7.38006000       5.68109000      13.87500000      -0.00747400       0.00029900      -0.03072800
C        6.15004000       7.81156000      13.87500000      -0.01286700       0.00774900      -0.03054800
C        4.92001000       9.94202000      13.87500000      -0.00344400       0.00410000      -0.03111600
C        3.69007000      12.07234000      13.87500000      -0.00746300       0.00228000      -0.03083400
C        2.46005000      14.20280000      13.87500000       0.00136800      -0.00349000      -0.03111300
C       12.29990000       1.42031000      13.87500000       0.00151100      -0.01676200      -0.03082900
C       11.06988000       3.55078000      13.87500000       0.01210500      -0.01153700      -0.03031000
C        9.83994000       5.68109000      13.87500000       0.00359300      -0.00024500      -0.03064800
C        8.60991000       7.81156000      13.87500000       0.00122200       0.00605100      -0.03030800
C        7.37989000       9.94202000      13.87500000      -0.01122400       0.00459000      -0.03082900
C        6.14995000      12.07234000      13.87500000      -0.01043500       0.01117800      -0.03022900
C        4.91993000      14.20280000      13.87500000       0.00314900      -0.01602200      -0.03022600
C       14.75995000       1.42031000      13.87500000       0.02074400       0.01245100      -0.02251500
C       13.52993000       3.55078000      13.87500000       0.01445800      -0.00917900      -0.03120000
C       12.29999000       5.68109000      13.87500000       0.00755400       0.00130300      -0.03051800
C       11.06996000       7.81156000      13.87500000       0.00321100       0.00816800      -0.03051700
C        9.83994000       9.94202000      13.87500000       0.00059600       0.01268900      -0.03119600
C        8.61000000      12.07234000      13.87500000       0.01930300       0.01861800      -0.02251800
C        7.37998000      14.20280000      13.87500000      -0.16505100      -0.09400500      -0.05945900
C        0.00000000       0.00000000      10.12500000      -0.16514100      -0.09673800      -0.03040200
C       -1.23002000       2.13047000      10.12500000      -0.16399100       0.09369200       0.05912400
C       14.76004000       4.26078000      10.12500000      -0.01762600      -0.00159700       0.03067300
C       13.53001000       6.39125000      10.12500000      -0.00102600      -0.00662600       0.03081800
C       -4.92001000       8.52171000      10.12500000      -0.00512100       0.00071700       0.03081900
C       11.06996000      10.65218000      10.12500000      -0.01092100      -0.01570700       0.03067100
C        9.84002000      12.78249000      10.12500000       0.00087700      -0.19012500       0.05913200
C        2.46005000       0.00000000      10.12500000       0.16593800      -0.09721400      -0.03122100
C        1.23002000       2.13047000      10.12500000       0.00003900       0.18959900      -0.03122100
C        0.00009000       4.26078000      10.12500000       0.01793800      -0.00878200       0.02256500
C       -1.22994000       6.39125000      10.12500000      -0.01482200      -0.00731600       0.03067600
C       -2.45996000       8.52171000      10.12500000      -0.01020100      -0.00709400       0.03027400
C       -3.68999000      10.65218000      10.12500000      -0.01176100      -0.01638100       0.03067900
C       -4.91993000      12.78249000      10.12500000       0.00009000       0.02438200       0.02256500
C        4.91993000       0.00000000      10.12500000      -0.01429100      -0.01087800       0.02326200
C        3.68990000       2.13047000      10.12500000       0.17121400       0.09612400       0.05903100
C        2.45996000       4.26078000      10.12500000      -0.01822600      -0.00511300       0.02326400
C        1.22994000       6.39125000      10.12500000       0.00667200      -0.01233100       0.03105300
C       -0.00009000       8.52171000      10.12500000       0.00197800      -0.00306500       0.03074500
C       -1.23011000      10.65218000      10.12500000       0.00076100      -0.00498800       0.03075400
C       -2.46005000      12.78249000      10.12500000      -0.00537000       0.00955200       0.03105200
C        7.37998000       0.00000000      10.12500000       0.00182100       0.01430300       0.03082200
C        6.14995000       2.13047000      10.12500000       0.00143600       0.01366300       0.03020000
C        4.92001000       4.26078000      10.12500000       0.01056800      -0.00274300       0.03020800
C        3.68999000       6.39125000      10.12500000       0.01458000      -0.00765000       0.03082200
C        2.45996000       8.52171000      10.12500000       0.00465900      -0.00671100       0.03023900
C        1.22994000      10.65218000      10.12500000       0.00015400      -0.00674000       0.03066300
C        0.00000000      12.78249000      10.12500000      -0.00244100       0.00631400       0.03024100
C        9.84002000       0.00000000      10.12500000       0.00289300       0.01187700       0.03071700
C        8.61000000       2.13047000      10.12500000      -0.00123600       0.00395700       0.03043500
C        7.38006000       4.26078000      10.12500000       0.00409300       0.00824900       0.03127900
C        6.15004000       6.39125000      10.12500000       0.00448700      -0.00528600       0.03043300
C        4.92001000       8.52171000      10.12500000       0.01302500      -0.00521200       0.03071800
C        3.68999000      10.65218000      10.12500000       0.01044500      -0.00623200       0.03054300
C        2.46005000      12.78249000      10.12500000       0.00508600       0.00787700       0.03053800
C       12.30007000       0.00000000      10.12500000      -0.00927100       0.01503400       0.03112600
C       11.07005000       2.13047000      10.12500000      -0.00254100       0.00317000       0.03065500
C        9.84011000       4.26078000      10.12500000      -0.01037600       0.00696700       0.03102000
C        8.61009000       6.39125000      10.12500000      -0.00425700      -0.00236100       0.03100900
C        7.38006000       8.52171000      10.12500000      -0.00049800       0.00058200       0.03065900
C        6.15004000      10.65218000      10.12500000       0.00671700      -0.01624300       0.03112900
C        4.92010000      12.78249000      10.12500000       0.00596300       0.00718600       0.03080300
C       14.75995000       0.00000000      10.12500000       0.02391400      -0.01235400       0.02268300
C       13.52993000       2.13047000      10.12500000       0.00080400       0.01525500       0.03000300
C       12.29999000       4.26078000      10.12500000      -0.00592700       0.00800900       0.03106600
C       11.06996000       6.39125000      10.12500000       0.00056100      -0.00094400       0.03057800
C        9.83994000       8.52171000      10.12500000       0.00250000      -0.00503700       0.03106300
C        8.60991000      10.65218000      10.12500000       0.01597100      -0.01407600       0.03000800
C        7.37998000      12.78249000      10.12500000       0.00255800       0.02587300       0.02268700
C       -0.00000000       1.42031000      10.12500000      -0.16741200       0.09488900      -0.03093900
C       -1.23002000       3.55078000      10.12500000       0.00224600      -0.02821100       0.02282100
C       -2.45996000       5.68109000      10.12500000       0.01006400       0.01001900       0.03111700
C       -3.68999000       7.81156000      10.12500000       0.01001600       0.00705700       0.03035600
C       -4.92001000       9.94202000      10.12500000       0.01186800       0.00530100       0.03111900
C       -6.14995000      12.07234000      10.12500000      -0.02265000       0.01718100       0.02281400
C       -7.37998000      14.20280000      10.12500000      -0.00267400      -0.19053000      -0.03095200
C        2.46005000       1.42031000      10.12500000       0.16029100       0.09467400      -0.03145500
C        1.23002000       3.55078000      10.12500000      -0.00128500       0.18569000       0.05926500
C        0.00009000       5.68109000      10.12500000       0.00792400       0.00837400       0.02996800
C       -1.22994000       7.81156000      10.12500000       0.00009800      -0.00001900       0.03054800
C       -2.45996000       9.94202000      10.12500000      -0.00195300       0.00261000       0.03054800
C       -3.68990000      12.07234000      10.12500000       0.00798800       0.01111000       0.02997400
C       -4.91993000      14.20280000      10.12500000       0.16085700      -0.09648500       0.05925300
C        4.91993000       1.42031000      10.12500000      -0.02129100       0.01147000       0.02295800
C        3.68990000       3.55078000      10.12500000       0.00180300      -0.02715500       0.02296300
C        2.45996000       5.68109000      10.12500000      -0.01343000       0.00930400       0.03066400
C        1.22994000       7.81156000      10.12500000      -0.00087100       0.00753600       0.03095500
C       -0.00009000       9.94202000      10.12500000       0.00016800       0.00088600       0.03153800
C       -1.23002000      12.07234000      10.12500000       0.00412800       0.00243400       0.03095900
C       -2.46005000      14.20280000      10.12500000      -0.00047600      -0.01396100       0.03066400
C        7.37998000       1.42031000      10.12500000       0.00069900      -0.01547600       0.03065600
C        6.14995000       3.55078000      10.12500000      -0.00818700      -0.01069500       0.03081800
C        4.92001000       5.68109000      10.12500000      -0.01403200       0.01087200       0.03065300
C        3.68999000       7.81156000      10.12500000      -0.00661400       0.00113000       0.03045900
C        2.45996000       9.94202000      10.12500000      -0.00277700       0.00037700       0.03068500
C        1.23002000      12.07234000      10.12500000      -0.00226400       0.00390100       0.03069000
C        0.00000000      14.20280000      10.12500000      -0.00343100      -0.00452200       0.03045800
C        9.84002000       1.42031000      10.12500000      -0.00083400      -0.01325200       0.03055100
C        8.61000000       3.55078000      10.12500000      -0.00147400      -0.00954900       0.03073100
C        7.38006000       5.68109000      10.12500000      -0.00747400       0.00029900       0.03072800
C        6.15004000       7.81156000      10.12500000      -0.01286700       0.00774900       0.03054800
C        4.92001000       9.94202000      10.12500000      -0.00344400       0.00410000       0.03111600
C        3.69007000      12.07234000      10.12500000      -0.00746300       0.00228000       0.03083400
C        2.46005000      14.20280000      10.12500000       0.00136800      -0.00349000       0.03111300
C       12.29990000       1.42031000      10.12500000       0.00151100      -0.01676200       0.03082900
C       11.06988000       3.55078000      10.12500000       0.01210500      -0.01153700       0.03031000
C        9.83994000       5.68109000      10.12500000       0.00359300      -0.00024500       0.03064800
C        8.60991000       7.81156000      10.12500000       0.00122200       0.00605100       0.03030800
C        7.37989000       9.94202000      10.12500000      -0.01122400       0.00459000       0.03082900
C        6.14995000      12.07234000      10.12500000      -0.01043500       0.01117800       0.03022900
C        4.91993000      14.20280000      10.12500000       0.00314900      -0.01602200       0.03022600
C       14.75995000       1.42031000      10.12500000       0.02074400       0.01245100       0.02251500
C       13.52993000       3.55078000      10.12500000       0.01445800      -0.00917900       0.03120000
C       12.29999000       5.68109000      10.12500000       0.00755400       0.00130300       0.03051800
C       11.06996000       7.81156000      10.12500000       0.00321100       0.00816800       0.03051700
C        9.83994000       9.94202000      10.12500000       0.00059600       0.01268900       0.03119600
C        8.61000000      12.07234000      10.12500000       0.01930300       0.01861800       0.02251800
C        7.37998000      14.20280000      10.12500000      -0.16505100      -0.09400500       0.05945900
Li       1.23002000       0.71016000      12.00000000      -0.00009900      -0.00008200      -0.00000000
197
Lattice="17.219999313 0.0 0.0 -8.609999657 14.912956858 0.0 0.0 0.0 24.0" Properties=species:S:1:pos:R:3:forces:R:3 stress="-0.0031962518573283127 5.9138298967743874e-05 -0.0 5.9138298967743874e-05 -0.003127994713527653 -0.0 -0.0 -0.0 0.005105629363082016" free_energy=-1822.64914262 energy=-1822.64494771 pbc="T T T"
C        0.00000000       0.00000000      13.87647000      -0.16507600      -0.09670000       0.01834200
C       -1.23002000       2.13047000      13.87215000      -0.16405400       0.09375600      -0.01634400
C       14.76004000       4.26078000      13.87352000      -0.01760500      -0.00160400      -0.01810500
C       13.53001000       6.39125000      13.87351000      -0.00103900      -0.00661100      -0.02067900
C       -4.92001000       8.52171000      13.87351000      -0.00511500       0.00069600      -0.02068000
C       11.06996000      10.65218000      13.87352000      -0.01091600      -0.01568600      -0.01810400
C        9.84002000      12.78249000      13.87215000       0.00090100      -0.19021200      -0.01634700
C        2.46005000       0.00000000      13.87651000       0.16584400      -0.09716900       0.01889400
C        1.23002000       2.13047000      13.87651000       0.00003200       0.18949700       0.01887900
C        0.00009000       4.26078000      13.87391000       0.01780600      -0.00874300      -0.02470400
C       -1.22994000       6.39125000      13.87352000      -0.01480600      -0.00731300      -0.01975400
C       -2.45996000       8.52171000      13.87354000      -0.01021100      -0.00710000      -0.02026500
C       -3.68999000      10.65218000      13.87352000      -0.01175000      -0.01636800      -0.01975700
C       -4.91993000      12.78249000      13.87391000       0.00005700       0.02424600      -0.02470400
C        4.91993000       0.00000000      13.87388000      -0.01420600      -0.01078100      -0.02517400
C        3.68990000       2.13047000      13.87215000       0.17124700       0.09614400      -0.01632100
C        2.45996000       4.26078000      13.87388000      -0.01810000      -0.00508600      -0.02518500
C        1.22994000       6.39125000      13.87350000       0.00665600      -0.01230300      -0.02143700
C       -0.00009000       8.52171000      13.87352000       0.00197500      -0.00308100      -0.02071500
C       -1.23011000      10.65218000      13.87352000       0.00074500      -0.00498100      -0.02072000
C       -2.46005000      12.78249000      13.87350000      -0.00535300       0.00952400      -0.02144000
C        7.37998000       0.00000000      13.87351000       0.00182900       0.01431100      -0.01987700
C        6.14995000       2.13047000      13.87354000       0.00145800       0.01367700      -0.01776300
C        4.92001000       4.26078000      13.87354000       0.01059200      -0.00273200      -0.01776600
C        3.68999000       6.39125000      13.87351000       0.01459100      -0.00764800      -0.01988100
C        2.45996000       8.52171000      13.87354000       0.00468100      -0.00672200      -0.02032400
C        1.22994000      10.65218000      13.87352000       0.00016800      -0.00673000      -0.02074400
C        0.00000000      12.78249000      13.87354000      -0.00244000       0.00633800      -0.02032700
C        9.84002000       0.00000000      13.87352000       0.00287800       0.01187100      -0.02057100
C        8.61000000       2.13047000      13.87353000      -0.00123200       0.00395100      -0.02047800
C        7.38006000       4.26078000      13.87349000       0.00407300       0.00823600      -0.02122000
C        6.15004000       6.39125000      13.87353000       0.00448400      -0.00527900      -0.02048000
C        4.92001000       8.52171000      13.87352000       0.01301300      -0.00522200      -0.02057600
C        3.68999000      10.65218000      13.87353000       0.01042800      -0.00622600      -0.02051100
C        2.46005000      12.78249000      13.87353000       0.00508300       0.00786000      -0.02051100
C       12.30007000       0.00000000      13.87350000      -0.00922500       0.01504300      -0.02009300
C       11.07005000       2.13047000      13.87352000      -0.00254700       0.00320600      -0.02055900
C        9.84011000       4.26078000      13.87350000      -0.01035700       0.00695700      -0.02036700
C        8.61009000       6.39125000      13.87350000      -0.00425500      -0.00234300      -0.02036200
C        7.38006000       8.52171000      13.87352000      -0.00047000       0.00055900      -0.02056100
C        6.15004000      10.65218000      13.87350000       0.00674700      -0.01621000      -0.02010100
C        4.92010000      12.78249000      13.87351000       0.00596600       0.00718600      -0.02131500
C       14.75995000       0.00000000      13.87391000       0.02379700      -0.01226400      -0.02476800
C       13.52993000       2.13047000      13.87355000       0.00079600       0.01524100      -0.01765800
C       12.29999000       4.26078000      13.87350000      -0.00594400       0.00799600      -0.02109600
C       11.06996000       6.39125000      13.87352000       0.00057500      -0.00093500      -0.02015700
C        9.83994000       8.52171000      13.87350000       0.00248100      -0.00504600      -0.02109300
C        8.60991000      10.65218000      13.87355000       0.01595400      -0.01407500      -0.01766100
C        7.37998000      12.78249000      13.87391000       0.00257800       0.02572800      -0.02477600
C       -0.00000000       1.42031000      13.87649000      -0.16733800       0.09483300       0.01861300
C       -1.23002000       3.55078000      13.87390000       0.00228900      -0.02808100      -0.02484300
C       -2.45996000       5.68109000      13.87350000       0.01009500       0.01004200      -0.02008700
C       -3.68999000       7.81156000      13.87354000       0.01001800       0.00705800      -0.02034100
C       -4.92001000       9.94202000      13.87350000       0.01190300       0.00531800      -0.02009000
C       -6.14995000      12.07234000      13.87390000      -0.02251600       0.01715400      -0.02484200
C       -7.37998000      14.20280000      13.87649000      -0.00268500      -0.19043900       0.01861000
C        2.46005000       1.42031000      13.87652000       0.16019700       0.09462000       0.01903800
C        1.23002000       3.55078000      13.87214000      -0.00132100       0.18571400      -0.01645300
C        0.00009000       5.68109000      13.87355000       0.00790700       0.00839100      -0.01763800
C       -1.22994000       7.81156000      13.87353000       0.00009900      -0.00002900      -0.02048600
C       -2.45996000       9.94202000      13.87353000      -0.00196200       0.00261600      -0.02048900
C       -3.68990000      12.07234000      13.87355000       0.00799600       0.01108600      -0.01764000
C       -4.91993000      14.20280000      13.87214000       0.16086100      -0.09652700      -0.01644200
C        4.91993000       1.42031000      13.87389000      -0.02118800       0.01138500      -0.02495600
C        3.68990000       3.55078000      13.87389000       0.00178000      -0.02702400      -0.02496900
C        2.45996000       5.68109000      13.87352000      -0.01342700       0.00934000      -0.01810200
C        1.22994000       7.81156000      13.87351000      -0.00086300       0.00751000      -0.02102400
C       -0.00009000       9.94202000      13.87348000       0.00016900       0.00088700      -0.02065700
C       -1.23002000      12.07234000      13.87351000       0.00411000       0.00245400      -0.02102600
C       -2.46005000      14.20280000      13.87352000      -0.00044300      -0.01397500      -0.01810100
C        7.37998000       1.42031000      13.87352000       0.00071000      -0.01546700      -0.01975000
C        6.14995000       3.55078000      13.87351000      -0.00819000      -0.01069600      -0.02136300
C        4.92001000       5.68109000      13.87352000      -0.01401800       0.01087800      -0.01975900
C        3.68999000       7.81156000      13.87353000      -0.00662300       0.00114100      -0.02045100
C        2.45996000       9.94202000      13.87352000      -0.00275500       0.00038200      -0.02016600
C        1.23002000      12.07234000      13.87352000      -0.00225000       0.00391600      -0.02016500
C        0.00000000      14.20280000      13.87353000      -0.00342600      -0.00453400      -0.02044900
C        9.84002000       1.42031000      13.87353000      -0.00085300      -0.01322900      -0.02044600
C        8.61000000       3.55078000      13.87352000      -0.00147200      -0.00956900      -0.02063800
C        7.38006000       5.68109000      13.87352000      -0.00749100       0.00031200      -0.02063300
C        6.15004000       7.81156000      13.87353000      -0.01285700       0.00772000      -0.02045200
C        4.92001000       9.94202000      13.87350000      -0.00348200       0.00410300      -0.02089700