197
Lattice="17.219999313 0.0 0.0 -8.609999657 14.912956858 0.0 0.0 0.0 24.0" Properties=species:S:1:pos:R:3:forces:R:3 stress="-0.003197013321441671 5.9100849912988566e-05 4.9932073007066075e-08 5.9100849912988566e-05 -0.0031287998682048923 -3.744905475529955e-08 4.9932073007066075e-08 -3.744905475529955e-08 0.0017757655198959198" free_energy=-1821.94344838 energy=-1821.9392925 pbc="T T T"
C        0.00000000       0.00000000      13.67500000       0.00116300      -0.32549800       0.16505000
C       -1.23002000       2.13047000      13.67500000      -0.27982000       0.16040800       0.16522800
C       14.76004000       4.26078000      13.67500000      -0.02489100      -0.01059700      -0.00381600
C       13.53001000       6.39125000      13.67500000      -0.00726000      -0.00439200      -0.00448000
C       -4.92001000       8.52171000      13.67500000      -0.01106500      -0.00481300      -0.00448600
C       11.06996000      10.65218000      13.67500000      -0.00327200      -0.01497100      -0.00454000
C        9.84002000      12.78249000      13.67500000      -0.02473100      -0.00882500      -0.00371300
C        2.46005000       0.00000000      13.67500000       0.05951200      -0.03583900       0.01086700
C        1.23002000       2.13047000      13.67500000       0.28132100       0.15982700       0.16518000
C        0.00009000       4.26078000      13.67500000      -0.00325500       0.07389300       0.01092200
C       -1.22994000       6.39125000      13.67500000      -0.02022300      -0.00868600      -0.00383700
C       -2.45996000       8.52171000      13.67500000      -0.00554700      -0.00938000      -0.00401100
C       -3.68999000      10.65218000      13.67500000      -0.01141300      -0.00815100      -0.00410500
C       -4.91993000      12.78249000      13.67500000      -0.01433300      -0.01419500      -0.00383100
C        4.91993000       0.00000000      13.67500000       0.01224400       0.02123200      -0.00397300
C        3.68990000       2.13047000      13.67500000       0.00195500       0.02782700      -0.00366700
C        2.45996000       4.26078000      13.67500000       0.02463000      -0.00881500      -0.00380200
C        1.22994000       6.39125000      13.67500000       0.02651600      -0.00628600      -0.00382500
C       -0.00009000       8.52171000      13.67500000       0.00589300       0.00584600      -0.00431600
C       -1.23011000      10.65218000      13.67500000      -0.00147100      -0.01096600      -0.00405600
C       -2.46005000      12.78249000      13.67500000       0.00732800       0.00269000      -0.00427200
C        7.37998000       0.00000000      13.67500000      -0.00568500       0.00947700      -0.00418400
C        6.14995000       2.13047000      13.67500000       0.00388500       0.00612800      -0.00439600
C        4.92001000       4.26078000      13.67500000      -0.00157700       0.00655400      -0.00742900
C        3.68999000       6.39125000      13.67500000       0.00940400      -0.00463300      -0.00446800
C        2.45996000       8.52171000      13.67500000       0.00696400      -0.00900100      -0.00399700
C        1.22994000      10.65218000      13.67500000       0.00978200      -0.01297600      -0.00405400
C        0.00000000      12.78249000      13.67500000       0.00103700       0.01099900      -0.00391400
C        9.84002000       0.00000000      13.67500000       0.00769600       0.00960700      -0.00418600
C        8.61000000       2.13047000      13.67500000       0.00107900       0.01239100      -0.00432700
C        7.38006000       4.26078000      13.67500000      -0.00186600       0.00826800      -0.00409800
C        6.15004000       6.39125000      13.67500000       0.00326600      -0.00366600      -0.00396400
C        4.92001000       8.52171000      13.67500000       0.01347100      -0.00489000      -0.00447600
C        3.68999000      10.65218000      13.67500000       0.01444000      -0.00763100      -0.00409600
C        2.46005000      12.78249000      13.67500000      -0.00013300       0.00081300      -0.00427500
C       12.30007000       0.00000000      13.67500000      -0.01158000       0.01996400      -0.00397600
C       11.07005000       2.13047000      13.67500000      -0.00820800       0.00689100      -0.00439300
C        9.84011000       4.26078000      13.67500000      -0.00947600       0.00889200      -0.00410500
C        8.61009000       6.39125000      13.67500000      -0.00511100      -0.00258700      -0.00466700
C        7.38006000       8.52171000      13.67500000      -0.00349400       0.00127500      -0.00404100
C        6.15004000      10.65218000      13.67500000       0.00083000      -0.01442400      -0.00453400
C        4.92010000      12.78249000      13.67500000       0.00978500      -0.01305200      -0.00382900
C       14.75995000       0.00000000      13.67500000      -0.05758200      -0.03498500       0.01087200
C       13.52993000       2.13047000      13.67500000       0.00535900       0.02630100      -0.00367900
C       12.29999000       4.26078000      13.67500000      -0.00321000       0.00703200      -0.00743600
C       11.06996000       6.39125000      13.67500000      -0.00051900      -0.00331200      -0.00397700
C        9.83994000       8.52171000      13.67500000       0.00000700       0.00100300      -0.00405100
C        8.60991000      10.65218000      13.67500000       0.00235400      -0.00886200      -0.00744400
C        7.37998000      12.78249000      13.67500000       0.02772000      -0.00854700      -0.00372000
C       -0.00000000       1.42031000      13.67500000      -0.00114200      -0.00179700       3.78836900
C       -1.23002000       3.55078000      13.67500000      -0.01480000       0.14802500       0.00807400
C       -2.45996000       5.68109000      13.67500000       0.02224200       0.01640800       0.00581000
C       -3.68999000       7.81156000      13.67500000       0.00854000       0.00192500       0.00307200
C       -4.92001000       9.94202000      13.67500000       0.00270900       0.00790100       0.00287700
C       -6.14995000      12.07234000      13.67500000       0.02537700       0.01673100       0.00599100
C       -7.37998000      14.20280000      13.67500000       0.11974000      -0.08783200       0.00802500
C        2.46005000       1.42031000      13.67500000       0.13263100      -0.06331100       0.00816500
C        1.23002000       3.55078000      13.67500000       0.01530100       0.14616000       0.00807800
C        0.00009000       5.68109000      13.67500000      -0.00571500       0.00069100      -0.00189600
C       -1.22994000       7.81156000      13.67500000      -0.00744600       0.00117200       0.00308400
C       -2.45996000       9.94202000      13.67500000       0.00392800       0.00319700       0.00302100
C       -3.68990000      12.07234000      13.67500000      -0.00677200       0.00148300       0.00313600
C       -4.91993000      14.20280000      13.67500000      -0.00281900      -0.00153500      -0.00190500
C        4.91993000       1.42031000      13.67500000       0.00306200      -0.03059700       0.00589200
C        3.68990000       3.55078000      13.67500000      -0.00017000      -0.00325900       0.00734500
C        2.45996000       5.68109000      13.67500000      -0.02385000       0.01676200       0.00580200
C        1.22994000       7.81156000      13.67500000       0.00117700       0.00337200       0.00307300
C       -0.00009000       9.94202000      13.67500000      -0.00070900      -0.00631500       0.00308700
C       -1.23002000      12.07234000      13.67500000      -0.00663200       0.00859400       0.00328100
C       -2.46005000      14.20280000      13.67500000       0.00058100       0.00407800       0.00293600
C        7.37998000       1.42031000      13.67500000      -0.00622500      -0.00974400       0.00308100
C        6.14995000       3.55078000      13.67500000       0.00225200      -0.01383700       0.00356600
C        4.92001000       5.68109000      13.67500000      -0.01160200       0.00464200       0.00350600
C        3.68999000       7.81156000      13.67500000      -0.01066600       0.00183700       0.00307000
C        2.45996000       9.94202000      13.67500000      -0.01097200       0.00496500       0.00301500
C        1.23002000      12.07234000      13.67500000       0.00341300       0.00814300       0.00328700
C        0.00000000      14.20280000      13.67500000      -0.00112400      -0.00929500       0.00307300
C        9.84002000       1.42031000      13.67500000       0.00336900      -0.01008100       0.00307700
C        8.61000000       3.55078000      13.67500000       0.00199800      -0.01631000       0.00323500
C        7.38006000       5.68109000      13.67500000      -0.00386300      -0.00286000       0.00372200
C        6.15004000       7.81156000      13.67500000      -0.01402800       0.00898300       0.00332200
C        4.92001000       9.94202000      13.67500000      -0.00568100       0.00748100       0.00287600
C        3.69007000      12.07234000      13.67500000      -0.00217900       0.00291900       0.00313200
C        2.46005000      14.20280000      13.67500000      -0.00291600       0.00328800       0.00294200
C       12.29990000       1.42031000      13.67500000       0.00138600      -0.03166400       0.00589800
C       11.06988000       3.55078000      13.67500000       0.00911600      -0.01447000       0.00356400
C        9.83994000       5.68109000      13.67500000       0.00734200      -0.00313500       0.00372500
C        8.60991000       7.81156000      13.67500000       0.00514400       0.00428500       0.00387300
C        7.37989000       9.94202000      13.67500000      -0.00522400       0.00504300       0.00338000
C        6.14995000      12.07234000      13.67500000      -0.02288700       0.01604800       0.00597700
C        4.91993000      14.20280000      13.67500000       0.00212800      -0.00039800      -0.00191800
C       14.75995000       1.42031000      13.67500000      -0.13952800      -0.06150500       0.00816900
C       13.52993000       3.55078000      13.67500000       0.00581200      -0.00361500       0.00736300
C       12.29999000       5.68109000      13.67500000       0.00948000       0.00471700       0.00350600
C       11.06996000       7.81156000      13.67500000       0.01131100       0.00939700       0.00332700
C        9.83994000       9.94202000      13.67500000       0.00903600       0.00575000       0.00339500
C        8.61000000      12.07234000      13.67500000      -0.00187500       0.00900900       0.00754800
C        7.37998000      14.20280000      13.67500000      -0.12198300      -0.08779200       0.00803200
C        0.00000000       0.00000000      10.32500000      -0.00119100      -0.28659800      -0.19450800
C       -1.23002000       2.13047000      10.32500000      -0.24951300       0.14260700      -0.19465800
C       14.76004000       4.26078000      10.32500000      -0.00166500      -0.02383700      -0.00159100
C       13.53001000       6.39125000      10.32500000       0.01184900       0.00966500       0.00483500
C       -4.92001000       8.52171000      10.32500000       0.00915300       0.00919500       0.00478900
C       11.06996000      10.65218000      10.32500000       0.01932900      -0.00185900       0.00489900
C        9.84002000      12.78249000      10.32500000      -0.02801700       0.01892900      -0.00168700
C        2.46005000       0.00000000      10.32500000       0.17594300      -0.10272100       0.03684600
C        1.23002000       2.13047000      10.32500000       0.24655300       0.14233700      -0.19464700
C        0.00009000       4.26078000      10.32500000      -0.00235300       0.21177800       0.03679700
C       -1.22994000       6.39125000      10.32500000       0.01060900       0.01100700       0.00333200
C       -2.45996000       8.52171000      10.32500000       0.00432300       0.00226700       0.00433400
C       -3.68999000      10.65218000      10.32500000       0.00447400      -0.00171100       0.00440600
C       -4.91993000      12.78249000      10.32500000       0.01594600       0.00649800       0.00334000
C        4.91993000       0.00000000      10.32500000       0.01098800      -0.01762500       0.00347900
C        3.68990000       2.13047000      10.32500000      -0.02238900       0.01393300      -0.00173800
C        2.45996000       4.26078000      10.32500000       0.00411300      -0.02436600      -0.00159800
C        1.22994000       6.39125000      10.32500000      -0.00714200       0.01071700       0.00332300
C       -0.00009000       8.52171000      10.32500000       0.00512000       0.00931500       0.00471200
C       -1.23011000      10.65218000      10.32500000       0.01199000      -0.00579500       0.00436200
C       -2.46005000      12.78249000      10.32500000       0.01081900      -0.00106900       0.00466400
C        7.37998000       0.00000000      10.32500000      -0.00465900      -0.00461300       0.00449300
C        6.14995000       2.13047000      10.32500000       0.00228900      -0.01769700       0.00476100
C        4.92001000       4.26078000      10.32500000      -0.01438100      -0.00014700       0.00623500
C        3.68999000       6.39125000      10.32500000      -0.01425200       0.00974200       0.00482500
C        2.45996000       8.52171000      10.32500000      -0.00708300       0.00260100       0.00432100
C        1.22994000      10.65218000      10.32500000      -0.00067100      -0.00515400       0.00435500
C        0.00000000      12.78249000      10.32500000      -0.00107600      -0.00069600       0.00423300
C        9.84002000       0.00000000      10.32500000       0.00264100      -0.00447500       0.00449200
C        8.61000000       2.13047000      10.32500000      -0.00103900      -0.01241000       0.00461400
C        7.38006000       4.26078000      10.32500000      -0.00270400       0.00006300       0.00458800
C        6.15004000       6.39125000      10.32500000      -0.00784300       0.00087600       0.00443600
C        4.92001000       8.52171000      10.32500000      -0.01132100       0.00942500       0.00477800
C        3.68999000      10.65218000      10.32500000       0.00032300      -0.00122300       0.00439800
C        2.46005000      12.78249000      10.32500000      -0.00650700      -0.00031300       0.00466400
C       12.30007000       0.00000000      10.32500000      -0.01166400      -0.01888000       0.00347600
C       11.07005000       2.13047000      10.32500000      -0.00948500      -0.01958100       0.00475700
C        9.84011000       4.26078000      10.32500000      -0.00560000      -0.00194800       0.00459100
C        8.61009000       6.39125000      10.32500000      -0.00589800      -0.00392500       0.00481800
C        7.38006000       8.52171000      10.32500000      -0.01154700       0.00604300       0.00453400
C        6.15004000      10.65218000      10.32500000      -0.01906800      -0.00365700       0.00489000
C        4.92010000      12.78249000      10.32500000      -0.02328000       0.00499300       0.00333700
C       14.75995000       0.00000000      10.32500000      -0.17787200      -0.10184000       0.03685100
C       13.52993000       2.13047000      10.32500000       0.02691200       0.01507200      -0.00173100
C       12.29999000       4.26078000      10.32500000       0.01134800       0.00037400       0.00624600
C       11.06996000       6.39125000      10.32500000       0.00642400       0.00125400       0.00445000
C        9.83994000       8.52171000      10.32500000       0.00525700       0.00844600       0.00454800
C        8.60991000      10.65218000      10.32500000       0.00325900       0.00819700       0.00623900
C        7.37998000      12.78249000      10.32500000       0.02653900       0.01955800      -0.00168300
C        1.23002000       0.71016000      10.32500000       0.24122200      -0.14174400      -0.18682000
C        0.00000000       2.84062000      10.32500000       0.00186500       0.27325500      -0.18700300
C       -1.22994000       4.97094000      10.32500000       0.03070000      -0.02174700      -0.00901400
C       -2.45996000       7.10140000      10.32500000      -0.01217100      -0.00959200      -0.00341900
C       -3.68999000       9.23187000      10.32500000      -0.01125700      -0.00692400      -0.00344900
C       -4.91993000      11.36218000      10.32500000      -0.01642900      -0.00532200      -0.00330900
C       -6.14995000      13.49265000      10.32500000      -0.00262900       0.03818200      -0.00919900
C        3.69007000       0.71016000      10.32500000      -0.03832300      -0.01709300      -0.00909600
C        2.46005000       2.84062000      10.32500000       0.16399800       0.09366200       0.03003300
C        1.23011000       4.97094000      10.32500000      -0.03450600      -0.02105300      -0.00899700
C        0.00009000       7.10140000      10.32500000      -0.00513700      -0.01459800      -0.00180200
C       -1.22994000       9.23187000      10.32500000      -0.00692200      -0.00639700      -0.00330600
C       -2.45988000      11.36218000      10.32500000      -0.01615400       0.00473300      -0.00345200
C       -3.68990000      13.49265000      10.32500000      -0.01720700       0.00967900      -0.00163600
C        6.14995000       0.71016000      10.32500000       0.00086000       0.01268700      -0.00322000
C        4.91993000       2.84062000      10.32500000      -0.00018700       0.00974700      -0.00433000
C        3.68999000       4.97094000      10.32500000       0.01159500      -0.00907600      -0.00413200
C        2.45996000       7.10140000      10.32500000       0.01489800      -0.00916800      -0.00341400
C        1.22994000       9.23187000      10.32500000       0.00343300      -0.00668700      -0.00330300
C       -0.00000000      11.36218000      10.32500000      -0.00198000       0.00224500      -0.00289600
C       -1.23002000      13.49265000      10.32500000      -0.00370800       0.00771900      -0.00339300
C        8.61000000       0.71016000      10.32500000       0.00113400       0.01148900      -0.00344500
C        7.37998000       2.84062000      10.32500000      -0.00057000      -0.00098900      -0.00343100
C        6.15004000       4.97094000      10.32500000       0.00554900       0.00214000      -0.00280000
C        4.92001000       7.10140000      10.32500000       0.00254000      -0.00491900      -0.00347300
C        3.68999000       9.23187000      10.32500000       0.01339600      -0.00685000      -0.00344900
C        2.46005000      11.36218000      10.32500000       0.00478600       0.00410900      -0.00345500
C        1.23002000      13.49265000      10.32500000       0.00656300       0.00737900      -0.00339800
C       11.07005000       0.71016000      10.32500000       0.00148100       0.01188800      -0.00321400
C        9.84002000       2.84062000      10.32500000       0.00379000      -0.00143900      -0.00342500
C        8.61009000       4.97094000      10.32500000       0.00070600       0.00019700      -0.00289500
C        7.38006000       7.10140000      10.32500000       0.00145400      -0.00220900      -0.00308300
C        6.15004000       9.23187000      10.32500000       0.00418300       0.00092000      -0.00328000
C        4.92010000      11.36218000      10.32500000       0.01076800      -0.00567700      -0.00328900
C        3.69007000      13.49265000      10.32500000       0.01278400       0.00861200      -0.00162900
C       13.52993000       0.71016000      10.32500000       0.03901900      -0.01597500      -0.00910800
C       12.29990000       2.84062000      10.32500000       0.00914800       0.01116700      -0.00433100
C       11.06996000       4.97094000      10.32500000       0.00149300       0.00390100      -0.00280600
C        9.83994000       7.10140000      10.32500000       0.00481700       0.00000200      -0.00309500
C        8.60991000       9.23187000      10.32500000       0.00571600      -0.00293200      -0.00286000
C        7.37998000      11.36218000      10.32500000       0.01514900      -0.00054800      -0.00430500
C        6.14995000      13.49265000      10.32500000       0.00954300       0.04001700      -0.00919500
C       15.98997000       0.71016000      10.32500000      -0.23896200      -0.14178300      -0.18682500
C       14.75995000       2.84062000      10.32500000      -0.16647600       0.09298500       0.03002000
C       13.53001000       4.97094000      10.32500000      -0.00863100      -0.00947600      -0.00413300
C       12.29999000       7.10140000      10.32500000      -0.00041800      -0.00498600      -0.00347600
C       11.06996000       9.23187000      10.32500000      -0.00256700       0.00128000      -0.00328700
C        9.84002000      11.36218000      10.32500000      -0.01565800      -0.00238300      -0.00430800
C        8.61000000      13.49265000      10.32500000       0.00112900      -0.19225800       0.03007500
Li      -0.00000000       1.42031000      12.00000000       0.00000500       0.00009400      -3.36489300
197
Lattice="17.219999313 0.0 0.0 -8.609999657 14.912956858 0.0 0.0 0.0 24.0" Properties=species:S:1:pos:R:3:forces:R:3 stress="-0.0032439182625226834 5.898226123959679e-05 6.865660038471585e-08 5.898226123959679e-05 -0.003175736016831535 -6.241509125883259e-08 6.865660038471585e-08 -6.241509125883259e-08 0.0025293466072276866" free_energy=-1822.27117684 energy=-1822.26699064 pbc="T T T"
C        0.00000000       0.00000000      13.68296000       0.00113900      -0.10933600       1.01558000
C       -1.23002000       2.13047000      13.68297000      -0.09271700       0.05239000       1.01559000
C       14.76004000       4.26078000      13.67482000      -0.01976200      -0.00119000      -0.08639200
C       13.53001000       6.39125000      13.67478000      -0.00623900      -0.00431200       0.00743500
C       -4.92001000       8.52171000      13.67478000      -0.00935300      -0.00382500       0.00254400
C       11.06996000      10.65218000      13.67478000      -0.00270200      -0.01412900       0.00736500
C        9.84002000      12.78249000      13.67482000      -0.01402800      -0.00909600      -0.08627100
C        2.46005000       0.00000000      13.67552000       0.05243800      -0.03176000       0.07180800
C        1.23002000       2.13047000      13.68297000       0.09417500       0.05180300       1.01546100
C        0.00009000       4.26078000      13.67553000      -0.00325900       0.06573300       0.07176900
C       -1.22994000       6.39125000      13.67481000      -0.01690000      -0.00741500       0.00020600
C       -2.45996000       8.52171000      13.67481000      -0.00540700      -0.00787000       0.00150300
C       -3.68999000      10.65218000      13.67480000      -0.01003000      -0.00878400       0.00144200
C       -4.91993000      12.78249000      13.67482000      -0.01157300      -0.01195000       0.00026200
C        4.91993000       0.00000000      13.67481000       0.01167600       0.01771200       0.00011800
C        3.68990000       2.13047000      13.67482000       0.00753100       0.01868700      -0.08630700
C        2.45996000       4.26078000      13.67482000       0.01946400       0.00057800      -0.08646400
C        1.22994000       6.39125000      13.67482000       0.02318100      -0.00501600       0.00020300
C       -0.00009000       8.52171000      13.67479000       0.00589000       0.00435900       0.00214900
C       -1.23011000      10.65218000      13.67480000       0.00058200      -0.00977800       0.00206300
C       -2.46005000      12.78249000      13.67479000       0.00603900       0.00342700       0.00221200
C        7.37998000       0.00000000      13.67480000      -0.00444700       0.00859100       0.00141300
C        6.14995000       2.13047000      13.67479000       0.00344100       0.00521100       0.00750000
C        4.92001000       4.26078000      13.67464000      -0.00228600       0.00614400       0.01480400
C        3.68999000       6.39125000      13.67478000       0.00836100      -0.00454800       0.00737700
C        2.45996000       8.52171000      13.67481000       0.00681600      -0.00749000       0.00149300
C        1.22994000      10.65218000      13.67480000       0.00771900      -0.01178700       0.00206300
C        0.00000000      12.78249000      13.67481000       0.00103300       0.00862000       0.00218500
C        9.84002000       0.00000000      13.67480000       0.00645300       0.00872400       0.00141500
C        8.61000000       2.13047000      13.67479000       0.00107200       0.01040800       0.00266700
C        7.38006000       4.26078000      13.67480000      -0.00134100       0.00787600       0.00061900
C        6.15004000       6.39125000      13.67481000       0.00319200      -0.00301500       0.00071300
C        4.92001000       8.52171000      13.67478000       0.01172900      -0.00389200       0.00249800
C        3.68999000      10.65218000      13.67480000       0.01305200      -0.00826300       0.00143500
C        2.46005000      12.78249000      13.67479000       0.00114700       0.00154900       0.00221300
C       12.30007000       0.00000000      13.67481000      -0.01102000       0.01644700       0.00011600
C       11.07005000       2.13047000      13.67479000      -0.00777100       0.00596000       0.00750600
C        9.84011000       4.26078000      13.67480000      -0.01000500       0.00850400       0.00061600
C        8.61009000       6.39125000      13.67477000      -0.00511800      -0.00258500       0.00347300
C        7.38006000       8.52171000      13.67481000      -0.00409600       0.00100700       0.00065700
C        6.15004000      10.65218000      13.67478000       0.00023500      -0.01356500       0.00731400
C        4.92010000      12.78249000      13.67482000       0.00701600      -0.01080500       0.00024500
C       14.75995000       0.00000000      13.67552000      -0.05051900      -0.03090600       0.07178500
C       13.52993000       2.13047000      13.67482000      -0.00022500       0.01714600      -0.08626400
C       12.29999000       4.26078000      13.67464000      -0.00251400       0.00662300       0.01480600
C       11.06996000       6.39125000      13.67481000      -0.00045100      -0.00266400       0.00071000
C        9.83994000       8.52171000      13.67480000       0.00060400       0.00073600       0.00066100
C        8.60991000      10.65218000      13.67464000       0.00234800      -0.00804800       0.01479800
C        7.37998000      12.78249000      13.67482000       0.01699300      -0.00877700      -0.08632000
C       -0.00000000       1.42031000      13.85776000      -0.00087800      -0.00101100      -1.60750000
C       -1.23002000       3.55078000      13.67539000      -0.02275600       0.14391700      -0.01826900
C       -2.45996000       5.68109000      13.67528000       0.01743000       0.01506400      -0.00894200
C       -3.68999000       7.81156000      13.67515000       0.00726200       0.00254800      -0.00207900
C       -4.92001000       9.94202000      13.67514000       0.00261800       0.00648000      -0.00222400
C       -6.14995000      12.07234000      13.67529000       0.02180800       0.01323600      -0.00885800
C       -7.37998000      14.20280000      13.67539000       0.11219300      -0.09269000      -0.01831300
C        2.46005000       1.42031000      13.67539000       0.13306200      -0.05435700      -0.01822200
C        1.23002000       3.55078000      13.67539000       0.02313500       0.14181900      -0.01850400
C        0.00009000       5.68109000      13.67491000      -0.00571000       0.00217800       0.00438900
C       -1.22994000       7.81156000      13.67515000      -0.00632300       0.00115000      -0.00264800
C       -2.45996000       9.94202000      13.67515000       0.00206400       0.00211500      -0.00229100
C       -3.68990000      12.07234000      13.67515000      -0.00622100       0.00245300      -0.00264900
C       -4.91993000      14.20280000      13.67491000      -0.00152000      -0.00229400       0.00434100
C        4.91993000       1.42031000      13.67528000       0.00430100      -0.02577200      -0.00888900
C        3.68990000       3.55078000      13.67535000       0.00020300      -0.00305200       0.01223100
C        2.45996000       5.68109000      13.67528000      -0.01908200       0.01532400      -0.00908600
C        1.22994000       7.81156000      13.67515000       0.00006000       0.00335300      -0.00264700
C       -0.00009000       9.94202000      13.67515000      -0.00070500      -0.00433800      -0.00233200
C       -1.23002000      12.07234000      13.67516000      -0.00491000       0.00759500      -0.00220400
C       -2.46005000      14.20280000      13.67514000       0.00001300       0.00310800      -0.00278700
C        7.37998000       1.42031000      13.67515000      -0.00504400      -0.00895800      -0.00208000
C        6.14995000       3.55078000      13.67517000       0.00252700      -0.01329900      -0.00419700
C        4.92001000       5.68109000      13.67517000      -0.01099100       0.00459500      -0.00423300
C        3.68999000       7.81156000      13.67515000      -0.00939100       0.00243400      -0.00221300
C        2.45996000       9.94202000      13.67515000      -0.00910200       0.00388000      -0.00228800
C        1.23002000      12.07234000      13.67516000       0.00169800       0.00714400      -0.00220200
C        0.00000000      14.20280000      13.67515000      -0.00112400      -0.00714900      -0.00229500
C        9.84002000       1.42031000      13.67515000       0.00218600      -0.00929000      -0.00208800
C        8.61000000       3.55078000      13.67516000       0.00199800      -0.01422300      -0.00227800
C        7.38006000       5.68109000      13.67518000      -0.00342200      -0.00261300      -0.00226100
C        6.15004000       7.81156000      13.67516000      -0.01220800       0.00792800      -0.00223200