13
Lattice="4.260799885 0.0 0.0 -2.130399942 3.689960941 0.0 0.0 0.0 24.0" Properties=species:S:1:pos:R:3:forces:R:3 energy=-113.43974122851513 free_energy=-113.43974122851513 stress="-0.08144250377957186 3.0270931420839957e-06 9.012440623443575e-19 3.0270931420839957e-06 -0.08144608067852119 1.1495983264219386e-17 9.012440623443575e-19 1.1495983264219386e-17 -3.97422405745662e-05" pbc="T T T"
C        0.00000000       0.00000000      13.87968926      -0.00743748      -0.01248344       0.00071044
C       -0.00002000       2.45999000      13.87966054       0.01562750      -0.00026241       0.00106116
C        2.13042000       1.22997000      13.87966198      -0.00894021       0.01408554       0.00103911
C        2.84053000       2.45999000      13.87970903      -0.01505685      -0.00068860       0.00017585
C        0.71010000       1.23001000      13.87966637       0.00930362       0.01203971       0.00066345
C        2.84055000       0.00000000      13.87969324       0.00645895      -0.01274830       0.00033899
C        0.00000000       0.00000000      10.12031074      -0.00743748      -0.01248344      -0.00071044
C       -0.00002000       2.45999000      10.12033946       0.01562750      -0.00026241      -0.00106116
C        2.13042000       1.22997000      10.12033802      -0.00894021       0.01408554      -0.00103911
C        2.84053000       2.45999000      10.12029097      -0.01505685      -0.00068860      -0.00017585
C        0.71010000       1.23001000      10.12033363       0.00930362       0.01203971      -0.00066345
C        2.84055000       0.00000000      10.12030676       0.00645895      -0.01274830      -0.00033899
Li       1.42023423       2.45989776      12.00000000       0.00008893       0.00011500      -0.00000000
