13
Lattice="4.260799885 0.0 0.0 -2.130399942 3.689960941 0.0 0.0 0.0 24.0" Properties=species:S:1:pos:R:3:forces:R:3 energy=-113.39246249280838 free_energy=-113.39246249280838 stress="-0.08144058240966295 3.0309462275255464e-06 2.9958536828741305e-08 3.0309462275255464e-06 -0.08144407038702041 -3.8513361105630827e-08 2.9958536828741305e-08 -3.8513361105630827e-08 -6.008661969102099e-05" pbc="T T T"
C        0.00000000       0.00000000      13.98577811      -0.09344482      -0.16142940      -0.00014770
C       -0.00002000       2.45999000      13.98577862      -0.09260298       0.16155833      -0.00017435
C        2.13042000       1.22997000      13.98577249       0.18532351       0.00122751      -0.00010860
C        2.84053000       2.45999000      13.98224865      -0.00020750      -0.00065070       0.00425880
C        0.71010000       1.23001000      14.00468778       0.00185982      -0.00081815      -0.00225074
C        2.84055000       0.00000000      13.98224924      -0.00094176       0.00011921       0.00425390
C        0.00000000       0.00000000      10.03834798      -0.00302149      -0.00568129      -0.00364387
C       -0.00002000       2.45999000      10.03834837      -0.00148382       0.00401329      -0.00365420
C        2.13042000       1.22997000      10.03834458       0.00526568       0.00028259      -0.00362680
C        3.55067000       1.22997000      10.03829916      -0.00413133       0.00072673       0.00173455
C        1.42025000       0.00000000      10.03829694       0.00313720      -0.00389971       0.00175981
C        1.42030000       2.45995000      10.03829694       0.00024485       0.00455087       0.00175054
Li       0.71015958       1.23004158      11.84355114       0.00000264       0.00000073      -0.00015134
