17
Lattice="4.920000076 0.0 0.0 -2.460000038 4.260845053 0.0 0.0 0.0 24.0" Properties=species:S:1:pos:R:3:forces:R:3 energy=-150.6081251852256 free_energy=-150.6081251852256 stress="-0.07729322966629157 1.184356508271252e-05 -6.938489024391519e-19 1.184356508271252e-05 -0.07727980962374795 -1.9578389157695392e-17 -6.938489024391519e-19 -1.9578389157695392e-17 -0.00021683645367323346" pbc="T T T"
C        0.00000000       0.00000000      13.87726960      -0.22316455      -0.12679807       0.00343012
C        3.69000000       2.13042000      13.86948712      -0.00167919       0.00103242       0.00424894
C        2.46000000       0.00000000      13.87726922       0.21960219      -0.12688845       0.00343546
C        1.23000000       2.13042000      13.87726935      -0.00186081       0.25667577       0.00342909
C       -0.00005000       1.42031000      13.87727036      -0.21961412       0.12673223       0.00344233
C       -1.23005000       3.55073000      13.87726893       0.00186809      -0.25650703       0.00342840
C        2.45995000       1.42031000      13.87726867       0.22316215       0.12662192       0.00342718
C        1.22995000       3.55073000      13.86948707       0.00166720      -0.00086221       0.00425050
C        0.00000000       0.00000000      10.12273040      -0.22316455      -0.12679807      -0.00343012
C        3.69000000       2.13042000      10.13051288      -0.00167919       0.00103242      -0.00424894
C        2.46000000       0.00000000      10.12273078       0.21960219      -0.12688845      -0.00343546
C        1.23000000       2.13042000      10.12273065      -0.00186081       0.25667577      -0.00342909
C       -0.00005000       1.42031000      10.12272964      -0.21961412       0.12673223      -0.00344233
C       -1.23005000       3.55073000      10.12273107       0.00186809      -0.25650703      -0.00342840
C        2.45995000       1.42031000      10.12273133       0.22316215       0.12662192      -0.00342718
C        1.22995000       3.55073000      10.13051293       0.00166720      -0.00086221      -0.00425050
Li       1.22995293       0.71015899      12.00000000       0.00003807      -0.00001318      -0.00000000
