17
Lattice="4.920000076 0.0 0.0 -2.46 4.260845053 0.0 0.0 0.0 24.0" Properties=species:S:1:pos:R:3:forces:R:3 energy=-150.55702841736533 free_energy=-150.55702841736533 stress="-0.07751086411594182 3.0032022437612318e-09 -1.0132342829980357e-11 3.0032022437612318e-09 -0.07754403335595214 -8.821540806464382e-07 -1.0132342829980357e-11 -8.821540806464382e-07 -5.281922033316626e-06" pbc="T T T"
C        0.00000000       0.00000000      13.98121536      -0.00000170      -0.27838208      -0.00048768
C        3.69000000       2.13000000      13.98126590      -0.22059571       0.13133022      -0.00036209
C        2.46000000       0.00000000      13.98409147       0.00000054      -0.02440278      -0.00021206
C        1.23000000       2.13000000      13.98126590       0.22059728       0.13133150      -0.00036210
C        0.00000000       1.42000000      14.00068930      -0.00000183      -0.00354153      -0.00074835
C       -1.23000000       3.55000000      13.97975789       0.07421073       0.06652156       0.00098282
C        2.46000000       1.42000000      13.97978090       0.00000035      -0.08916497       0.00100215
C        1.23000000       3.55000000      13.97975789      -0.07420966       0.06652275       0.00098283
C        0.00000000       0.00000000      10.03399911      -0.00000211      -0.31510961      -0.00020867
C        3.69000000       2.13000000      10.03399014      -0.25475415       0.15922861      -0.00034527
C        2.46000000       0.00000000      10.04325500       0.00000048      -0.02084827      -0.00044878
C        1.23000000       2.13000000      10.03399014       0.25475541       0.15922839      -0.00034527
C        1.23000000       0.71000000      10.03407860       0.25420227      -0.15879039       0.00003009
C        0.00000000       2.84000000      10.03410247      -0.00000187       0.31428900       0.00019830
C        3.69000000       0.71000000      10.03407859      -0.25420073      -0.15879060       0.00003009
C        2.46000000       2.84000000      10.04337012       0.00000070       0.02069829       0.00055081
Li      -0.00000011       1.41976979      11.84131123      -0.00000000      -0.00012006      -0.00025681
