29
Lattice="6.508500099 0.0 0.0 -3.25425005 5.636526426 0.0 0.0 0.0 24.0" Properties=species:S:1:pos:R:3:forces:R:3 energy=-262.0454738821019 free_energy=-262.0454738821019 stress="-0.07293078562218318 3.5610438667518827e-06 4.928631027442143e-09 3.5610438667518827e-06 -0.07293194020362667 5.276261296815387e-08 4.928631027442143e-09 5.276261296815387e-08 -5.4491232422746946e-05" pbc="T T T"
C        0.00000000       0.00000000      13.96116202      -0.06645446      -0.24712157      -0.00131498
C       -0.46487000       2.41565000      13.96115314      -0.18379909       0.18147836      -0.00131496
C       -0.92980000       4.83129000      13.94620786       0.02894074      -0.06706881       0.00164036
C        1.85958000       1.61041000      13.96115971       0.24793408       0.06883488      -0.00131488
C        1.39467000       4.02611000      13.94621216       0.04484032       0.05812892       0.00164000
C        4.18405000       0.80523000      13.94621077      -0.07548340       0.00890421       0.00164014
C        3.71912000       3.22088000      13.93751951       0.00149732      -0.00006582       0.00236538
C       -2.32448000       4.56294000      13.94608256       0.05128250      -0.09255961       0.00148039
C        0.46490000       1.34206000      13.99002339      -0.00015150      -0.00168187      -0.00145155
C       -0.00003000       3.75770000      13.94824957      -0.00094591       0.14846690       0.00143712
C        2.78935000       0.53682000      13.94825125       0.13086587      -0.07386251       0.00143731
C        2.32448000       2.95247000      13.94608612       0.05160194       0.08999218       0.00148003
C        1.85954000       5.36812000      13.94825574      -0.12637563      -0.07620267       0.00143760
C        4.64892000       2.14723000      13.94608117      -0.10374379       0.00275617       0.00148016
C        0.00000000       0.00000000      10.04861256      -0.08718894      -0.23379408      -0.00210481
C       -0.46487000       2.41565000      10.04861051      -0.15897183       0.19250598      -0.00210550
C       -0.92980000       4.83129000      10.06502907       0.11164548      -0.14717976      -0.00239306
C        1.85958000       1.61041000      10.04861309       0.24593993       0.04166276      -0.00210534
C        1.39467000       4.02611000      10.06502733       0.07296769       0.16815877      -0.00239255
C        4.18405000       0.80523000      10.06502814      -0.18330115      -0.02302345      -0.00239279
C        3.71912000       3.22088000      10.06634197       0.00144316      -0.00094603      -0.00252313
C       -1.39467000       3.48929000      10.06510308      -0.11151714       0.14723533       0.00012577
C        1.39471000       0.26841000      10.04857086       0.15479897      -0.19243478       0.00041428
C        0.92977000       2.68406000      10.04856961       0.08934800       0.23103416       0.00041471
C        0.46490000       5.09970000      10.06648082      -0.00062755       0.00112429      -0.00001167
C        3.25428000       1.87882000      10.06510343       0.18283570       0.02254560       0.00012614
C        2.78935000       4.29447000      10.06510236      -0.07317278      -0.16858049       0.00012754
C        5.57873000       1.07359000      10.04856823      -0.24420869      -0.03830706       0.00041466
Li       0.46488507       1.34204395      11.85258394       0.00000016       0.00000003       0.00376362
