29
Lattice="6.508500099 0.0 0.0 -3.25425005 5.636526426 0.0 0.0 0.0 24.0" Properties=species:S:1:pos:R:3:forces:R:3 energy=-262.1031232062619 free_energy=-262.1031232062619 stress="-0.0728052523317133 3.7260196362364273e-06 -7.022078129615579e-18 3.7260196362364273e-06 -0.07280616824597787 1.1986143103323462e-17 -7.022078129615579e-18 1.1986143103323462e-17 -0.00015788424451494058" pbc="T T T"
C        0.00000000       0.00000000      13.87205279      -0.06754858      -0.14985149       0.00369918
C       -0.46487000       2.41565000      13.88232860      -0.20514718      -0.03197883       0.00134645
C       -0.92980000       4.83129000      13.87205089      -0.09733776       0.13485507       0.00369844
C        1.85958000       1.61041000      13.88233027       0.13016929      -0.15854290       0.00134234
C        1.39467000       4.02611000      13.88232908       0.07327612       0.19141637       0.00134929
C        4.18405000       0.80523000      13.87199016      -0.00150209      -0.00053323       0.00341177
C        3.71912000       3.22088000      13.87205176       0.16555434       0.01775859       0.00370079
C       -2.32448000       4.56294000      13.87199015      -0.00007333      -0.00158685       0.00340961
C        0.46490000       1.34206000      13.88233013      -0.07372579      -0.19430856       0.00134158
C       -0.00003000       3.75770000      13.88232826      -0.12884168       0.15928421       0.00134769
C        2.78935000       0.53682000      13.87205148       0.09803102      -0.13424950       0.00369564
C        2.32448000       2.95247000      13.88233022       0.20210356       0.03255880       0.00134362
C        1.85954000       5.36812000      13.87205199       0.06840550       0.15127284       0.00369912
C        4.64892000       2.14723000      13.87205202      -0.16335896      -0.01610321       0.00369779
C        0.00000000       0.00000000      10.12794721      -0.06754858      -0.14985149      -0.00369918
C       -0.46487000       2.41565000      10.11767140      -0.20514718      -0.03197883      -0.00134645
C       -0.92980000       4.83129000      10.12794911      -0.09733776       0.13485507      -0.00369844
C        1.85958000       1.61041000      10.11766973       0.13016929      -0.15854290      -0.00134234
C        1.39467000       4.02611000      10.11767092       0.07327612       0.19141637      -0.00134929
C        4.18405000       0.80523000      10.12800984      -0.00150209      -0.00053323      -0.00341177
C        3.71912000       3.22088000      10.12794824       0.16555434       0.01775859      -0.00370079
C       -2.32448000       4.56294000      10.12800985      -0.00007333      -0.00158685      -0.00340961
C        0.46490000       1.34206000      10.11766987      -0.07372579      -0.19430856      -0.00134158
C       -0.00003000       3.75770000      10.11767174      -0.12884168       0.15928421      -0.00134769
C        2.78935000       0.53682000      10.12794852       0.09803102      -0.13424950      -0.00369564
C        2.32448000       2.95247000      10.11766978       0.20210356       0.03255880      -0.00134362
C        1.85954000       5.36812000      10.12794801       0.06840550       0.15127284      -0.00369912
C        4.64892000       2.14723000      10.12794798      -0.16335896      -0.01610321      -0.00369779
Li       0.92979299       2.68407269      12.00000000      -0.00000895       0.00001741      -0.00000000
