29
Lattice="6.508500099 0.0 0.0 -3.25425005 5.636526426 0.0 0.0 0.0 24.0" Properties=species:S:1:pos:R:3:forces:R:3 energy=-262.0454738808993 free_energy=-262.0454738808993 stress="-0.0729307853939047 3.5610438892557495e-06 4.928641081567943e-09 3.5610438892557495e-06 -0.07293193997534958 5.276263009650337e-08 4.928641081567943e-09 5.276263009650337e-08 -5.449175695225186e-05" pbc="T T T"
C        0.00000000       0.00000000      13.96116198      -0.06645446      -0.24712157      -0.00131495
C       -0.46487000       2.41565000      13.96115310      -0.18379909       0.18147836      -0.00131493
C       -0.92980000       4.83129000      13.94620780       0.02894074      -0.06706882       0.00164041
C        1.85958000       1.61041000      13.96115967       0.24793408       0.06883488      -0.00131485
C        1.39467000       4.02611000      13.94621211       0.04484032       0.05812893       0.00164005
C        4.18405000       0.80523000      13.94621072      -0.07548340       0.00890421       0.00164018
C        3.71912000       3.22088000      13.93751946       0.00149732      -0.00006582       0.00236543
C       -2.32448000       4.56294000      13.94608252       0.05128250      -0.09255961       0.00148036
C        0.46490000       1.34206000      13.99002337      -0.00015150      -0.00168187      -0.00145155
C       -0.00003000       3.75770000      13.94824953      -0.00094591       0.14846690       0.00143710
C        2.78935000       0.53682000      13.94825121       0.13086588      -0.07386252       0.00143729
C        2.32448000       2.95247000      13.94608608       0.05160194       0.08999218       0.00148001
C        1.85954000       5.36812000      13.94825570      -0.12637564      -0.07620267       0.00143757
C        4.64892000       2.14723000      13.94608112      -0.10374379       0.00275617       0.00148014
C        0.00000000       0.00000000      10.04861260      -0.08718894      -0.23379409      -0.00210481
C       -0.46487000       2.41565000      10.04861055      -0.15897184       0.19250599      -0.00210550
C       -0.92980000       4.83129000      10.06502912       0.11164548      -0.14717976      -0.00239309
C        1.85958000       1.61041000      10.04861313       0.24593994       0.04166277      -0.00210534
C        1.39467000       4.02611000      10.06502738       0.07296769       0.16815877      -0.00239258
C        4.18405000       0.80523000      10.06502819      -0.18330115      -0.02302345      -0.00239281
C        3.71912000       3.22088000      10.06634202       0.00144316      -0.00094603      -0.00252316
C       -1.39467000       3.48929000      10.06510313      -0.11151714       0.14723533       0.00012576
C        1.39471000       0.26841000      10.04857090       0.15479898      -0.19243479       0.00041430
C        0.92977000       2.68406000      10.04856965       0.08934800       0.23103417       0.00041473
C        0.46490000       5.09970000      10.06648087      -0.00062755       0.00112429      -0.00001169
C        3.25428000       1.87882000      10.06510348       0.18283570       0.02254559       0.00012613
C        2.78935000       4.29447000      10.06510241      -0.07317278      -0.16858049       0.00012753
C        5.57873000       1.07359000      10.04856827      -0.24420871      -0.03830706       0.00041468
Li       0.46488507       1.34204395      11.85258396       0.00000016       0.00000003       0.00376358
