37
Lattice="7.380000114 0.0 0.0 -3.690000057 6.391267579 0.0 0.0 0.0 24.0" Properties=species:S:1:pos:R:3:forces:R:3 energy=-336.43690192481637 free_energy=-336.43690192481637 stress="-0.0713633935743315 3.032993547951174e-06 -4.817919515568745e-18 3.032993547951174e-06 -0.07136092186725511 2.7264730207341325e-18 -4.817919515568745e-18 2.7264730207341325e-18 -0.00010026318605378405" pbc="T T T"
C        0.00000000       0.00000000      13.88373750      -0.15432546      -0.08924308       0.00250865
C       -1.22999000       2.13040000      13.87258774      -0.17098633       0.10088147      -0.00215130
C       -2.46001000       4.26087000      13.87258320       0.00003913      -0.19832339      -0.00215083
C        2.45998000       0.00000000      13.88373546       0.15459813      -0.08893802       0.00251714
C        1.22999000       2.13040000      13.88374124       0.00028725       0.18055364       0.00250085
C       -0.00004000       4.26087000      13.87198980       0.03023038       0.01648707       0.00468438
C        4.92002000       0.00000000      13.87198889      -0.00163911      -0.03524505       0.00467396
C        3.69004000       2.13040000      13.87258423       0.16909557       0.10010729      -0.00214780
C        2.46001000       4.26087000      13.87198869      -0.03130793       0.01534777       0.00468667
C        0.00000000       1.42027000      13.88374397      -0.15454241       0.08933769       0.00248617
C       -1.23002000       3.55073000      13.87198867      -0.02991026      -0.01906214       0.00468370
C       -2.46001000       5.68113000      13.88373404      -0.00014510      -0.17792954       0.00251898
C        2.45998000       1.42027000      13.88373643       0.15599306       0.09027847       0.00251327
C        1.22995000       3.55073000      13.87258652       0.00183120       0.19672352      -0.00214969
C       -0.00004000       5.68113000      13.87258468       0.17300880      -0.09752454      -0.00216112
C        4.92002000       1.42027000      13.87198934      -0.00012343       0.03414346       0.00468846
C        3.69000000       3.55073000      13.87198945       0.02937398      -0.01906616       0.00466744
C        2.46001000       5.68113000      13.87258422      -0.17149057      -0.09852260      -0.00214389
C        0.00000000       0.00000000      10.11626250      -0.15432546      -0.08924308      -0.00250865
C       -1.22999000       2.13040000      10.12741226      -0.17098633       0.10088147       0.00215130
C       -2.46001000       4.26087000      10.12741680       0.00003913      -0.19832339       0.00215083
C        2.45998000       0.00000000      10.11626454       0.15459813      -0.08893802      -0.00251714
C        1.22999000       2.13040000      10.11625876       0.00028725       0.18055364      -0.00250085
C       -0.00004000       4.26087000      10.12801020       0.03023038       0.01648707      -0.00468438
C        4.92002000       0.00000000      10.12801111      -0.00163911      -0.03524505      -0.00467396
C        3.69004000       2.13040000      10.12741577       0.16909557       0.10010729       0.00214780
C        2.46001000       4.26087000      10.12801131      -0.03130793       0.01534777      -0.00468667
C        0.00000000       1.42027000      10.11625603      -0.15454241       0.08933769      -0.00248617
C       -1.23002000       3.55073000      10.12801133      -0.02991026      -0.01906214      -0.00468370
C       -2.46001000       5.68113000      10.11626596      -0.00014510      -0.17792954      -0.00251898
C        2.45998000       1.42027000      10.11626357       0.15599306       0.09027847      -0.00251327
C        1.22995000       3.55073000      10.12741348       0.00183120       0.19672352       0.00214969
C       -0.00004000       5.68113000      10.12741532       0.17300880      -0.09752454       0.00216112
C        4.92002000       1.42027000      10.12801066      -0.00012343       0.03414346      -0.00468846
C        3.69000000       3.55073000      10.12801055       0.02937398      -0.01906616      -0.00466744
C        2.46001000       5.68113000      10.12741578      -0.17149057      -0.09852260       0.00214389
Li       1.22997354       0.71014394      12.00000000       0.00002620      -0.00001170       0.00000000
