37
Lattice="7.380000114 0.0 0.0 -3.690000057 6.391267579 0.0 0.0 0.0 24.0" Properties=species:S:1:pos:R:3:forces:R:3 energy=-336.37508678853845 free_energy=-336.37508678853845 stress="-0.07139256435855701 3.0262392552896977e-06 2.135088904555231e-08 3.0262392552896977e-06 -0.07138875538138921 5.898243439935706e-08 2.135088904555231e-08 5.898243439935706e-08 -0.00010279215258424973" pbc="T T T"
C        0.00000000       0.00000000      13.94167806       0.00010807      -0.25925666       0.00219898
C       -1.22999000       2.13040000      13.94167007      -0.22432073       0.13163235       0.00222342
C       -2.46001000       4.26087000      13.90977097      -0.03249346      -0.01955713       0.00076261
C        2.45998000       0.00000000      13.92161936       0.03040453      -0.01725449       0.00100034
C        1.22999000       2.13040000      13.94167506       0.22472536       0.13185194       0.00218582
C       -0.00004000       4.26087000      13.92162213       0.00060130       0.03431041       0.00098533
C        4.92002000       0.00000000      13.92162111      -0.03189081      -0.01850335       0.00096890
C        3.69004000       2.13040000      13.90977068      -0.00205308       0.03889602       0.00075288
C        2.46001000       4.26087000      13.90976959       0.03083875      -0.02054026       0.00078958
C        0.00000000       1.42027000      13.97739711      -0.00010773       0.00015222      -0.00620034
C       -1.23002000       3.55073000      13.92246213      -0.00532196       0.13095795       0.00331758
C       -2.46001000       5.68113000      13.92246383       0.11239020      -0.07038210       0.00331820
C        2.45998000       1.42027000      13.92246126       0.11921387      -0.06094891       0.00331290
C        1.22995000       3.55073000      13.92246318       0.00686100       0.13201624       0.00331607
C       -0.00004000       5.68113000      13.91475756       0.00193786       0.00126274       0.00142330
C        4.92002000       1.42027000      13.92246147      -0.11771494      -0.06214148       0.00331276
C        3.69000000       3.55073000      13.90708898      -0.00024765      -0.00198142       0.00070948
C        2.46001000       5.68113000      13.92246318      -0.11293087      -0.07053203       0.00332159
C        0.00000000       0.00000000      10.06667598      -0.00009528      -0.22562218      -0.00330058
C       -1.22999000       2.13040000      10.06666495      -0.19552698       0.11318010      -0.00329285
C       -2.46001000       4.26087000      10.09206102      -0.02967962      -0.01937300      -0.00264257
C        2.45998000       0.00000000      10.08965291       0.19109264      -0.10834124      -0.00055719
C        1.22999000       2.13040000      10.06666596       0.19709452       0.11411448      -0.00329305
C       -0.00004000       4.26087000      10.08964694       0.00202850       0.21734550      -0.00055750
C        4.92002000       0.00000000      10.08965445      -0.18961073      -0.10957927      -0.00056247
C        3.69004000       2.13040000      10.09205798      -0.00060301       0.03429710      -0.00263868
C        2.46001000       4.26087000      10.09206045       0.02929927      -0.01958160      -0.00264373
C        1.22999000       0.71013000      10.06674107       0.19365186      -0.11139848      -0.00260506
C        0.00000000       2.84053000      10.06673299       0.00026963       0.22553042      -0.00259881
C       -1.23002000       4.97100000      10.09232294       0.03003440       0.01706178      -0.00235617
C        3.69004000       0.71013000      10.09232348      -0.00192655      -0.03536518      -0.00234642
C        2.46005000       2.84053000      10.08961387       0.18731920       0.11058366       0.00031429
C        1.23002000       4.97100000      10.09232330      -0.03154803       0.01585763      -0.00235406
C        6.15001000       0.71013000      10.06674368      -0.19309892      -0.11155222      -0.00261370
C        4.92002000       2.84053000      10.08961395      -0.18882014       0.11162426       0.00031942
C        3.69000000       4.97100000      10.08962107       0.00011945      -0.21876359       0.00031313
Li       0.00000125       1.42034952      11.85560729       0.00000010      -0.00000021       0.00571659
