49
Lattice="8.52159977 0.0 0.0 -4.260799885 7.379921881 0.0 0.0 0.0 24.0" Properties=species:S:1:pos:R:3:forces:R:3 energy=-447.92527317508006 free_energy=-447.92527317508006 stress="-0.07018846190126282 -4.7207835120601455e-09 -4.357253255413588e-19 -4.7207835120601455e-09 -0.07018800523114048 8.18544795711632e-18 -4.357253255413588e-19 8.18544795711632e-18 -7.022805955580218e-05" pbc="T T T"
C        0.00000000       0.00000000      13.87362355      -0.08907110      -0.15456592       0.00971205
C       -2.13040000       3.68996000      13.87259597      -0.01120973      -0.03730226      -0.00466489
C        4.26080000       0.00000000      13.87259325      -0.02674056      -0.02839967      -0.00463227
C        2.13040000       3.68996000      13.88550956       0.10447058       0.18095378       0.00464803
C        0.00000000       2.46002000      13.88550772      -0.20651904      -0.00141010       0.00463843
C       -2.13040000       6.14998000      13.87259259       0.04059939       0.00757325      -0.00462998
C        4.26080000       2.46002000      13.87362633       0.18082048      -0.00142679       0.00969940
C        2.13040000       6.14998000      13.87259634       0.04033620      -0.01032275      -0.00465308
C        2.13044000       1.23001000      13.88550435       0.10204392      -0.17957544       0.00465733
C        0.00004000       4.91997000      13.87362740      -0.09164558       0.15590471       0.00973202
C        6.39124000       1.23001000      13.87259511      -0.01364321       0.03873018      -0.00467436
C        4.26084000       4.91997000      13.87259613      -0.02904286       0.02985168      -0.00466494
C        7.10130000       2.46002000      13.87363047      -0.17769274      -0.00141136       0.00955261
C       -3.55069000       6.14998000      13.87259369      -0.03781254       0.00759080      -0.00468658
C        2.84050000       2.46002000      13.88552671       0.20957431      -0.00142319       0.00415026
C        0.71010000       6.14998000      13.87259739      -0.03726802      -0.01034269      -0.00470967
C        0.71015000       1.23001000      13.88552458      -0.10359736      -0.17906239       0.00415317
C       -1.42025000       4.91997000      13.87259643       0.02765143       0.03020784      -0.00470280
C        4.97095000       1.23001000      13.87259399       0.01209564       0.03920229      -0.00467833
C        2.84055000       4.91997000      13.87363397       0.09011980       0.15640372       0.00952843
C        2.84059000       0.00000000      13.87363003       0.08767165      -0.15490889       0.00950857
C        0.71019000       3.68996000      13.88552979      -0.10599150       0.18045718       0.00414348
C        7.10139000       0.00000000      13.87259366       0.02521981      -0.02891370      -0.00467010
C        4.97099000       3.68996000      13.87259488       0.00963305      -0.03779008      -0.00466850
C        0.00000000       0.00000000      10.12637645      -0.08907110      -0.15456592      -0.00971205
C       -2.13040000       3.68996000      10.12740403      -0.01120973      -0.03730226       0.00466489
C        4.26080000       0.00000000      10.12740675      -0.02674056      -0.02839967       0.00463227
C        2.13040000       3.68996000      10.11449044       0.10447058       0.18095378      -0.00464803
C        0.00000000       2.46002000      10.11449228      -0.20651904      -0.00141010      -0.00463843
C       -2.13040000       6.14998000      10.12740741       0.04059939       0.00757325       0.00462998
C        4.26080000       2.46002000      10.12637367       0.18082048      -0.00142679      -0.00969940
C        2.13040000       6.14998000      10.12740366       0.04033620      -0.01032275       0.00465308
C        2.13044000       1.23001000      10.11449565       0.10204392      -0.17957544      -0.00465733
C        0.00004000       4.91997000      10.12637260      -0.09164558       0.15590471      -0.00973202
C        6.39124000       1.23001000      10.12740489      -0.01364321       0.03873018       0.00467436
C        4.26084000       4.91997000      10.12740387      -0.02904286       0.02985168       0.00466494
C        7.10130000       2.46002000      10.12636953      -0.17769274      -0.00141136      -0.00955261
C       -3.55069000       6.14998000      10.12740631      -0.03781254       0.00759080       0.00468658
C        2.84050000       2.46002000      10.11447329       0.20957431      -0.00142319      -0.00415026
C        0.71010000       6.14998000      10.12740261      -0.03726802      -0.01034269       0.00470967
C        0.71015000       1.23001000      10.11447542      -0.10359736      -0.17906239      -0.00415317
C       -1.42025000       4.91997000      10.12740357       0.02765143       0.03020784       0.00470280
C        4.97095000       1.23001000      10.12740601       0.01209564       0.03920229       0.00467833
C        2.84055000       4.91997000      10.12636603       0.09011980       0.15640372      -0.00952843
C        2.84059000       0.00000000      10.12636997       0.08767165      -0.15490889      -0.00950857
C        0.71019000       3.68996000      10.11447021      -0.10599150       0.18045718      -0.00414348
C        7.10139000       0.00000000      10.12740634       0.02521981      -0.02891370       0.00467010
C        4.97099000       3.68996000      10.12740512       0.00963305      -0.03779008       0.00466850
Li       1.42024508       2.45996578      12.00000000      -0.00000404      -0.00004037      -0.00000000
