49
Lattice="8.52159977 0.0 0.0 -4.260799885 7.379921881 0.0 0.0 0.0 24.0" Properties=species:S:1:pos:R:3:forces:R:3 energy=-447.86618350420923 free_energy=-447.86618350420923 stress="-0.07007292921524895 2.903400722968778e-06 4.162271184132676e-08 2.903400722968778e-06 -0.0700767041729627 3.719068813737567e-08 4.162271184132676e-08 3.719068813737567e-08 -6.100870779078008e-05" pbc="T T T"
C        0.00000000       0.00000000      13.93144307      -0.13180336      -0.22858399       0.00178933
C       -2.13040000       3.68996000      13.87538766       0.00372069      -0.00276098       0.00605222
C        4.26080000       0.00000000      13.87539350      -0.00428866       0.00179987       0.00604242
C        2.13040000       3.68996000      13.89346615       0.04199258       0.07275013       0.00867725
C        0.00000000       2.46002000      13.93142905      -0.13269437       0.22890696       0.00179182
C       -2.13040000       6.14998000      13.89345010       0.04139948      -0.07224011       0.00871494
C        4.26080000       2.46002000      13.87539452      -0.00507572      -0.00137792       0.00603460
C        2.13040000       6.14998000      13.87541157       0.00285805       0.00328575       0.00601038
C        2.13044000       1.23001000      13.93142793       0.26460022      -0.00048178       0.00179092
C        0.00004000       4.91997000      13.87539904       0.00134621      -0.00505798       0.00602886
C        6.39124000       1.23001000      13.89345576      -0.08316736      -0.00048247       0.00871141
C        4.26084000       4.91997000      13.87540398       0.00148436       0.00420330       0.00601891
C        7.10130000       2.46002000      13.90080939      -0.13287708       0.04177984      -0.00179724
C       -3.55069000       6.14998000      13.90081485       0.03273399      -0.14043382      -0.00181373
C        2.84050000       2.46002000      13.90081247       0.10803966       0.09448332      -0.00182401
C        0.71010000       6.14998000      13.86875224       0.00284504      -0.00137986      -0.00982182
C        0.71015000       1.23001000      13.97404516      -0.00019272      -0.00000076       0.00918389
C       -1.42025000       4.91997000      13.87684552      -0.01162511       0.01981373      -0.00783541
C        4.97095000       1.23001000      13.87684890       0.02273145      -0.00000751      -0.00784059
C        2.84055000       4.91997000      13.87686974      -0.01162830      -0.01982577      -0.00788084
C        2.84059000       0.00000000      13.90080804       0.10264925      -0.09448887      -0.00180106
C        0.71019000       3.68996000      13.90081543       0.02785158       0.14048996      -0.00182454
C        7.10139000       0.00000000      13.90082115      -0.13825185      -0.04183389      -0.00181866
C        4.97099000       3.68996000      13.86874304      -0.00266330       0.00142996      -0.00981320
C        0.00000000       0.00000000      10.08049066      -0.13260553      -0.23090443      -0.00189365
C       -2.13040000       3.68996000      10.12449064       0.03362716       0.03349201       0.00498246
C        4.26080000       0.00000000      10.12450037       0.01293600       0.04519116       0.00497629
C        2.13040000       3.68996000      10.11385358       0.09950818       0.17164462      -0.00224138
C        0.00000000       2.46002000      10.08048105      -0.13187326       0.22959416      -0.00188435
C       -2.13040000       6.14998000      10.11384268       0.10044378      -0.17290175      -0.00221414
C        4.26080000       2.46002000      10.12449586       0.01378928      -0.04655835       0.00497902
C        2.13040000       6.14998000      10.12451418       0.03417342      -0.03473100       0.00494598
C        2.13044000       1.23001000      10.08048410       0.26656438      -0.00138842      -0.00188645
C        0.00004000       4.91997000      10.12450467      -0.04556779      -0.01305220       0.00496114
C        6.39124000       1.23001000      10.11383958      -0.19835545      -0.00137266      -0.00222643
C        4.26084000       4.91997000      10.12450542      -0.04570066       0.01042266       0.00497554
C        7.81145000       1.23001000      10.08068598      -0.26073904      -0.00060109      -0.00649982
C       -2.84055000       4.91997000      10.12481522       0.04773139       0.01246024      -0.00074669
C        3.55065000       1.23001000      10.11396420       0.19642350      -0.00050934      -0.00611974
C        1.42025000       4.91997000      10.12483216       0.04774906      -0.01350817      -0.00077657
C        1.42030000       0.00000000      10.08068933       0.13059832      -0.22679347      -0.00648221
C       -0.71010000       3.68996000      10.11396311      -0.09796125       0.16912218      -0.00612322
C        5.68109000       0.00000000      10.12482431      -0.01179595       0.04683806      -0.00077290
C        3.55069000       3.68996000      10.12482408      -0.03438088       0.03384561      -0.00076446
C        1.42034000       2.45995000      10.08069122       0.12799946       0.22994312      -0.00650111
C       -0.71006000       6.14991000      10.12481946      -0.03737178      -0.03064712      -0.00076115
C        5.68114000       2.45995000      10.12480927      -0.01479222      -0.04367327      -0.00073854
C        3.55074000       6.14991000      10.11397781      -0.10038467      -0.16589833      -0.00614223
Li       0.71009871       1.23004147      11.86305276      -0.00000018      -0.00000133       0.00217873
