53
Lattice="8.869700432 0.0 0.0 -4.434850216 7.681385898 0.0 0.0 0.0 24.0" Properties=species:S:1:pos:R:3:forces:R:3 energy=-485.0929511859326 free_energy=-485.0929511859326 stress="-0.06986126774027983 3.918613301400327e-06 -1.247976191983427e-18 3.918613301400327e-06 -0.06986120783528248 -9.452742530031236e-18 -1.247976191983427e-18 -9.452742530031236e-18 -4.854260283029131e-05" pbc="T T T"
C        0.00000000       0.00000000      13.87459417      -0.03442229      -0.17816685       0.00481551
C       -0.68230000       2.36349000      13.88774941      -0.20026474      -0.05537478       0.00263119
C       -1.36451000       4.72697000      13.87459437      -0.14127741       0.11895111       0.00481144
C       -2.04686000       7.09053000      13.87204355       0.01006433       0.00734698       0.00339614
C        1.70569000       1.77263000      13.88774810       0.14739265      -0.14350739       0.00263747
C        1.02347000       4.13612000      13.88774637       0.04839080       0.20273927       0.00263866
C        0.34117000       6.49960000      13.87250261       0.02653059      -0.01467967      -0.00716637
C        4.09368000       1.18178000      13.87250216      -0.02786936      -0.01826027      -0.00716444
C        3.41138000       3.54527000      13.87459577       0.17469631       0.06094548       0.00481393
C        2.72916000       5.90875000      13.87204486      -0.01360895       0.00585980       0.00340381
C        6.48171000       0.59085000      13.87250375      -0.00152678       0.03469587      -0.00717045
C        5.79936000       2.95441000      13.87204513       0.00644599      -0.01487243       0.00340212
C        5.11715000       5.31790000      13.87034741       0.00009609      -0.00049188      -0.00052873
C       -3.41146000       6.69663000      13.87250229      -0.02649752       0.01500078      -0.00716653
C        0.34108000       1.37873000      13.88774618      -0.04793769      -0.20261159       0.00263978
C       -0.34113000       3.74222000      13.88774822      -0.14755438       0.14366468       0.00263595
C       -1.02343000       6.10570000      13.87204385      -0.01004975      -0.00717406       0.00339541
C        2.72907000       0.78788000      13.87459391       0.14114977      -0.11910500       0.00481210
C        2.04686000       3.15137000      13.88774939       0.20003218       0.05492386       0.00263161
C        1.36456000       5.51485000      13.87459465       0.03432855       0.17804199       0.00481459
C        5.11711000       0.19695000      13.87034752      -0.00013518       0.00042015      -0.00052894
C        4.43489000       2.56044000      13.87204501      -0.00616034       0.01480913       0.00340203
C        3.75255000       4.92400000      13.87250356       0.00165035      -0.03479747      -0.00717074
C        3.07025000       7.28748000      13.87204475       0.01360345      -0.00573053       0.00340353
C        6.82288000       1.96958000      13.87459595      -0.17488120      -0.06077177       0.00481344
C        6.14058000       4.33307000      13.87250239       0.02780426       0.01814533      -0.00716489
C        0.00000000       0.00000000      10.12540583      -0.03442229      -0.17816685      -0.00481551
C       -0.68230000       2.36349000      10.11225059      -0.20026474      -0.05537478      -0.00263119
C       -1.36451000       4.72697000      10.12540563      -0.14127741       0.11895111      -0.00481144
C       -2.04686000       7.09053000      10.12795645       0.01006433       0.00734698      -0.00339614
C        1.70569000       1.77263000      10.11225190       0.14739265      -0.14350739      -0.00263747
C        1.02347000       4.13612000      10.11225363       0.04839080       0.20273927      -0.00263866
C        0.34117000       6.49960000      10.12749739       0.02653059      -0.01467967       0.00716637
C        4.09368000       1.18178000      10.12749784      -0.02786936      -0.01826027       0.00716444
C        3.41138000       3.54527000      10.12540423       0.17469631       0.06094548      -0.00481393
C        2.72916000       5.90875000      10.12795514      -0.01360895       0.00585980      -0.00340381
C        6.48171000       0.59085000      10.12749625      -0.00152678       0.03469587       0.00717045
C        5.79936000       2.95441000      10.12795487       0.00644599      -0.01487243      -0.00340212
C        5.11715000       5.31790000      10.12965259       0.00009609      -0.00049188       0.00052873
C       -3.41146000       6.69663000      10.12749771      -0.02649752       0.01500078       0.00716653
C        0.34108000       1.37873000      10.11225382      -0.04793769      -0.20261159      -0.00263978
C       -0.34113000       3.74222000      10.11225178      -0.14755438       0.14366468      -0.00263595
C       -1.02343000       6.10570000      10.12795615      -0.01004975      -0.00717406      -0.00339541
C        2.72907000       0.78788000      10.12540609       0.14114977      -0.11910500      -0.00481210
C        2.04686000       3.15137000      10.11225061       0.20003218       0.05492386      -0.00263161
C        1.36456000       5.51485000      10.12540535       0.03432855       0.17804199      -0.00481459
C        5.11711000       0.19695000      10.12965248      -0.00013518       0.00042015       0.00052894
C        4.43489000       2.56044000      10.12795499      -0.00616034       0.01480913      -0.00340203
C        3.75255000       4.92400000      10.12749644       0.00165035      -0.03479747       0.00717074
C        3.07025000       7.28748000      10.12795525       0.01360345      -0.00573053      -0.00340353
C        6.82288000       1.96958000      10.12540405      -0.17488120      -0.06077177      -0.00481344
C        6.14058000       4.33307000      10.12749761       0.02780426       0.01814533       0.00716489
Li       0.68228302       2.75742407      12.00000000       0.00000055      -0.00000151       0.00000000
