53
Lattice="8.869700432 0.0 0.0 -4.434850216 7.681385898 0.0 0.0 0.0 24.0" Properties=species:S:1:pos:R:3:forces:R:3 energy=-485.0344874475354 free_energy=-485.0344874475354 stress="-0.06970469495150283 3.6527768670861755e-06 -7.528647159189203e-08 3.6527768670861755e-06 -0.0697047832651202 5.7283578398655994e-08 -7.528647159189203e-08 5.7283578398655994e-08 -5.874985360885996e-05" pbc="T T T"
C        0.00000000       0.00000000      13.92662202      -0.06461607      -0.25791094       0.00061625
C       -0.68230000       2.36349000      13.92662692      -0.19313322       0.18533745       0.00062139
C       -1.36451000       4.72697000      13.86777593      -0.01943686      -0.02175715       0.00156345
C       -2.04686000       7.09053000      13.88670307       0.05217444      -0.05392486       0.00210812
C        1.70569000       1.77263000      13.92663286       0.25373839       0.07626279       0.00061704
C        1.02347000       4.13612000      13.88672698       0.01777464       0.07276414       0.00211898
C        0.34117000       6.49960000      13.86056343      -0.00186641       0.00162482       0.00163270
C        4.09368000       1.18178000      13.86777543      -0.01089931       0.02439488       0.00156445
C        3.41138000       3.54527000      13.86376085       0.00969744      -0.00580959       0.00150296
C        2.72916000       5.90875000      13.86778086       0.02674391      -0.00195436       0.00156933
C        6.48171000       0.59085000      13.88670977      -0.07351752      -0.01648502       0.00212035
C        5.79936000       2.95441000      13.86375764       0.00576824       0.00598009       0.00149964
C        5.11715000       5.31790000      13.86375107      -0.00772775      -0.00340144       0.00149677
C       -3.41146000       6.69663000      13.89399242       0.07390913      -0.11827771       0.00098454
C        0.34108000       1.37873000      13.97105353       0.00265022      -0.00099455       0.00542453
C       -0.34113000       3.74222000      13.89460619      -0.00257584       0.14149259       0.00105864
C       -1.02343000       6.10570000      13.86414924       0.01261919       0.01725950      -0.00074907
C        2.72907000       0.78788000      13.89459029       0.12782741      -0.06881583       0.00106937
C        2.04686000       3.15137000      13.89401807       0.06532052       0.11894323       0.00097917
C        1.36456000       5.51485000      13.86416102      -0.01866168       0.00172816      -0.00075701
C        5.11711000       0.19695000      13.86415242       0.00758489      -0.01879844      -0.00075704
C        4.43489000       2.56044000      13.86100949       0.00562077      -0.00995506      -0.00215219
C        3.75255000       4.92400000      13.86100864      -0.01382150      -0.00442434      -0.00214764
C        3.07025000       7.28748000      13.89459604      -0.11961171      -0.07625595       0.00105861
C        6.82288000       1.96958000      13.89399626      -0.14075311      -0.00326642       0.00096752
C        6.14058000       4.33307000      13.86100632       0.00516867       0.01625228      -0.00215109
C        0.00000000       0.00000000      10.08404226      -0.06432586      -0.26665530      -0.00190968
C       -0.68230000       2.36349000      10.08403959      -0.19674124       0.19013471      -0.00190867
C       -1.36451000       4.72697000      10.13349851      -0.01337431      -0.00872208      -0.00152369
C       -2.04686000       7.09053000      10.12118879       0.15391538      -0.12975920      -0.00278696
C        1.70569000       1.77263000      10.08403638       0.26455560       0.07413346      -0.00190872
C        1.02347000       4.13612000      10.12117467       0.03133170       0.19636263      -0.00279246
C        0.34117000       6.49960000      10.14245587      -0.00045967       0.00231516      -0.00473840
C        4.09368000       1.18178000      10.13349934      -0.00339915       0.01207335      -0.00153268
C        3.41138000       3.54527000      10.13549030      -0.00071477      -0.04139672      -0.00106903
C        2.72916000       5.90875000      10.13349815       0.01623351      -0.00298267      -0.00153209
C        6.48171000       0.59085000      10.12118067      -0.18713813      -0.06703057      -0.00279600
C        5.79936000       2.95441000      10.13549081       0.03834527       0.01640084      -0.00106622
C        5.11715000       5.31790000      10.13549630      -0.03283745       0.02073551      -0.00106106
C       -1.70573000       3.34832000      10.12177266      -0.14916725       0.12289775      -0.00165167
C       -2.38803000       5.71180000      10.13364311       0.01341900       0.01262613       0.00158293
C        1.36460000       0.39390000      10.08406944       0.19110046      -0.18501471      -0.00409349
C        0.68230000       2.75739000      10.08406268       0.06328879       0.26192394      -0.00408327
C       -0.00004000       5.12095000      10.13413559       0.03814312      -0.02696543       0.00387753
C       -0.68226000       7.48444000      10.13414431      -0.03819324      -0.01819389       0.00387461
C        3.07029000       2.16653000      10.12176999       0.18128383       0.06857823      -0.00164495
C        2.38799000       4.53002000      10.13363338      -0.01636270       0.00371861       0.00159641
C        1.70578000       6.89351000      10.13413881       0.00189591       0.04265410       0.00388299
C        5.45828000       1.57568000      10.13363543       0.00664087      -0.01588998       0.00159260
C        4.77598000       3.93917000      10.14408804      -0.00177000       0.00081117      -0.00164499
C        4.09377000       6.30265000      10.12177579      -0.03619980      -0.19074166      -0.00164765
C        7.84631000       0.98475000      10.08406930      -0.25944277      -0.07202037      -0.00408674
Li       0.34117103       1.37874561      11.86244305      -0.00000399      -0.00000128       0.00721158
