65
Lattice="9.840000153 0.0 0.0 -4.920000076 8.521690105 0.0 0.0 0.0 24.0" Properties=species:S:1:pos:R:3:forces:R:3 energy=-596.5827084068748 free_energy=-596.5827084068748 stress="-0.06925052281999623 1.2683318740984043e-05 2.0128004024511543e-19 1.2683318740984043e-05 -0.06923616241958902 5.353099022249236e-18 2.0128004024511543e-19 5.353099022249236e-18 -3.8231598096876035e-05" pbc="T T T"
C        0.00000000       0.00000000      13.88852027      -0.18114420      -0.10232398       0.00769339
C        8.61000000       2.13042000      13.87667337      -0.16233334       0.09381921      -0.00356858
C       -2.46000000       4.26085000      13.87075506      -0.01701468      -0.00789007      -0.00444915
C       -3.69000000       6.39127000      13.87667920      -0.00186060      -0.18424122      -0.00357279
C        2.46000000       0.00000000      13.88852122       0.17745640      -0.10240942       0.00770162
C        1.23000000       2.13042000      13.88851958      -0.00192104       0.20815098       0.00769058
C        0.00000000       4.26085000      13.87353884       0.01688856      -0.00474465       0.00106524
C       -1.23000000       6.39127000      13.87354166       0.00264152       0.02019473       0.00104662
C        4.92000000       0.00000000      13.87354086      -0.01613691      -0.01232453       0.00104971
C        3.69000000       2.13042000      13.87667741       0.15865591       0.09383957      -0.00357229
C        2.46000000       4.26085000      13.87354081      -0.02067688      -0.00473808       0.00105687
C        1.23000000       6.39127000      13.86961092      -0.00192191       0.00114439       0.00472005
C        7.38000000       0.00000000      13.87353965       0.01233328      -0.01233974       0.00106344
C        6.15000000       2.13042000      13.87075443      -0.00189548       0.01864382      -0.00444807
C        4.92000000       4.26085000      13.87075580       0.01319621      -0.00787373      -0.00443819
C        3.69000000       6.39127000      13.87354242      -0.00645836       0.02018098       0.00105198
C       -0.00005000       1.42031000      13.88851940      -0.17745151       0.10241818       0.00769469
C       -1.23005000       3.55073000      13.87353833      -0.00264065      -0.01990583       0.00105554
C       -2.46005000       5.68116000      13.87354232      -0.01688988       0.00439041       0.00105611
C       -3.69005000       7.81158000      13.88852133       0.00191552      -0.20810061       0.00769642
C        2.45995000       1.42031000      13.88852035       0.18113959       0.10233306       0.00769295
C        1.22995000       3.55073000      13.87667584       0.00185720       0.18453132      -0.00357228
C       -0.00005000       5.68116000      13.87075489       0.01700969       0.00753635      -0.00444897
C       -1.23005000       7.81158000      13.87667658       0.16233672      -0.09376801      -0.00356915
C        4.91995000       1.42031000      13.87354103      -0.01232872       0.01234732       0.00105664
C        3.68995000       3.55073000      13.87354129       0.00645639      -0.01989180       0.00105866
C        2.45995000       5.68116000      13.87075487      -0.01319398       0.00752156      -0.00443696
C        1.22995000       7.81158000      13.87075503       0.00189250      -0.01859010      -0.00444907
C        7.37995000       1.42031000      13.87353874       0.01613948       0.01233222       0.00105200
C        6.14995000       3.55073000      13.86961114       0.00192570      -0.00085054       0.00472106
C        4.91995000       5.68116000      13.87354300       0.02068095       0.00438708       0.00105459
C        3.68995000       7.81158000      13.87667728      -0.15865488      -0.09378349      -0.00357234
C        0.00000000       0.00000000      10.11147973      -0.18114420      -0.10232398      -0.00769339
C        8.61000000       2.13042000      10.12332663      -0.16233334       0.09381921       0.00356858
C       -2.46000000       4.26085000      10.12924494      -0.01701468      -0.00789007       0.00444915
C       -3.69000000       6.39127000      10.12332080      -0.00186060      -0.18424122       0.00357279
C        2.46000000       0.00000000      10.11147878       0.17745640      -0.10240942      -0.00770162
C        1.23000000       2.13042000      10.11148042      -0.00192104       0.20815098      -0.00769058
C        0.00000000       4.26085000      10.12646116       0.01688856      -0.00474465      -0.00106524
C       -1.23000000       6.39127000      10.12645834       0.00264152       0.02019473      -0.00104662
C        4.92000000       0.00000000      10.12645914      -0.01613691      -0.01232453      -0.00104971
C        3.69000000       2.13042000      10.12332259       0.15865591       0.09383957       0.00357229
C        2.46000000       4.26085000      10.12645919      -0.02067688      -0.00473808      -0.00105687
C        1.23000000       6.39127000      10.13038908      -0.00192191       0.00114439      -0.00472005
C        7.38000000       0.00000000      10.12646035       0.01233328      -0.01233974      -0.00106344
C        6.15000000       2.13042000      10.12924557      -0.00189548       0.01864382       0.00444807
C        4.92000000       4.26085000      10.12924420       0.01319621      -0.00787373       0.00443819
C        3.69000000       6.39127000      10.12645758      -0.00645836       0.02018098      -0.00105198
C       -0.00005000       1.42031000      10.11148060      -0.17745151       0.10241818      -0.00769469
C       -1.23005000       3.55073000      10.12646167      -0.00264065      -0.01990583      -0.00105554
C       -2.46005000       5.68116000      10.12645768      -0.01688988       0.00439041      -0.00105611
C       -3.69005000       7.81158000      10.11147867       0.00191552      -0.20810061      -0.00769642
C        2.45995000       1.42031000      10.11147965       0.18113959       0.10233306      -0.00769295
C        1.22995000       3.55073000      10.12332416       0.00185720       0.18453132       0.00357228
C       -0.00005000       5.68116000      10.12924511       0.01700969       0.00753635       0.00444897
C       -1.23005000       7.81158000      10.12332342       0.16233672      -0.09376801       0.00356915
C        4.91995000       1.42031000      10.12645897      -0.01232872       0.01234732      -0.00105664
C        3.68995000       3.55073000      10.12645871       0.00645639      -0.01989180      -0.00105866
C        2.45995000       5.68116000      10.12924513      -0.01319398       0.00752156       0.00443696
C        1.22995000       7.81158000      10.12924497       0.00189250      -0.01859010       0.00444907
C        7.37995000       1.42031000      10.12646126       0.01613948       0.01233222      -0.00105200
C        6.14995000       3.55073000      10.13038886       0.00192570      -0.00085054      -0.00472106
C        4.91995000       5.68116000      10.12645700       0.02068095       0.00438708      -0.00105459
C        3.68995000       7.81158000      10.12332272      -0.15865488      -0.09378349       0.00357234
Li       1.22997839       0.71014832      12.00000000      -0.00000517       0.00000925      -0.00000000
