65
Lattice="9.840000153 0.0 0.0 -4.920000076 8.521690105 0.0 0.0 0.0 24.0" Properties=species:S:1:pos:R:3:forces:R:3 energy=-596.5292945982316 free_energy=-596.5292945982316 stress="-0.06872063344998607 1.2718390093440154e-05 -2.029714752855316e-08 1.2718390093440154e-05 -0.06870558621177678 1.875883216449983e-08 -2.029714752855316e-08 1.875883216449983e-08 -0.0001429760769022647" pbc="T T T"
C        0.00000000       0.00000000      13.91303993      -0.00181465      -0.27632818      -0.00262036
C        8.61000000       2.13042000      13.91301882      -0.24211228       0.13988063      -0.00262420
C       -2.46000000       4.26085000      13.81572563      -0.00412446      -0.02261613       0.00957197
C       -3.69000000       6.39127000      13.81573699      -0.02335108       0.01092201       0.00956687
C        2.46000000       0.00000000      13.85182966       0.07683151      -0.04431395       0.00651843
C        1.23000000       2.13042000      13.91303873       0.23843502       0.13985182      -0.00262005
C        0.00000000       4.26085000      13.85183222      -0.00192689       0.09178324       0.00651833
C       -1.23000000       6.39127000      13.80210757      -0.01758094      -0.00788708       0.00677750
C        4.92000000       0.00000000      13.80210800      -0.00192691       0.01922959       0.00677732
C        3.69000000       2.13042000      13.81573722      -0.02110478       0.01487114       0.00956503
C        2.46000000       4.26085000      13.81574787       0.00032722      -0.02259738       0.00958693
C        1.23000000       6.39127000      13.80212026       0.01371379      -0.00788288       0.00678712
C        7.38000000       0.00000000      13.85183338      -0.08067204      -0.04431015       0.00651709
C        6.15000000       2.13042000      13.81572605       0.01730128       0.01484351       0.00957095
C        4.92000000       4.26085000      13.78907967      -0.00193793       0.00086128       0.00279020
C        3.69000000       6.39127000      13.81574805       0.01951020       0.01092142       0.00958775
C       -0.00005000       1.42031000      13.96889818       0.00184584      -0.00109695      -0.00144501
C       -1.23005000       3.55073000      13.86574908      -0.04614623       0.13586783      -0.00852098
C       -2.46005000       5.68116000      13.80342232       0.03028239       0.01517465       0.00298394
C       -3.69005000       7.81158000      13.86575556       0.09622035      -0.11104617      -0.00851701
C        2.45995000       1.42031000      13.86575536       0.14424398      -0.02786601      -0.00851687
C        1.22995000       3.55073000      13.86576329       0.04991639       0.13584115      -0.00850425
C       -0.00005000       5.68116000      13.80812573       0.00193298      -0.01573308       0.00578194
C       -1.23005000       7.81158000      13.80811615      -0.01068072       0.00612225       0.00578221
C        4.91995000       1.42031000      13.80342284       0.00191640      -0.03389731       0.00298326
C        3.68995000       3.55073000      13.80332141       0.00819312       0.00276235       0.00530149
C        2.45995000       5.68116000      13.80344163      -0.02643570       0.01516647       0.00298204
C        1.22995000       7.81158000      13.80812616       0.01450424       0.00610078       0.00578179
C        7.37995000       1.42031000      13.86575036      -0.14051511      -0.02787569      -0.00852018
C        6.14995000       3.55073000      13.80330905      -0.00432125       0.00275689       0.00529664
C        4.91995000       5.68116000      13.80332132       0.00193151      -0.00844200       0.00530098
C        3.68995000       7.81158000      13.86576478      -0.09245859      -0.11106257      -0.00850359
C        0.00000000       0.00000000      10.10156920       0.00199752      -0.29772220       0.00708350
C        8.61000000       2.13042000      10.10156190      -0.25504384       0.14731247       0.00709121
C       -2.46000000       4.26085000      10.18215074      -0.00045264      -0.02871050      -0.00595470
C       -3.69000000       6.39127000      10.18215475      -0.02289943       0.01046237      -0.00596112
C        2.46000000       0.00000000      10.15768162       0.17256816      -0.09965372      -0.00322104
C        1.23000000       2.13042000      10.10156831       0.25881764       0.14717722       0.00708394
C        0.00000000       4.26085000      10.15766379       0.00186356       0.19577176      -0.00323188
C       -1.23000000       6.39127000      10.19824485       0.02051094       0.00963510      -0.00435419
C        4.92000000       0.00000000      10.19824583       0.00190927      -0.02260541      -0.00435281
C        3.69000000       2.13042000      10.18215506      -0.02051415       0.01465325      -0.00596036
C        2.46000000       4.26085000      10.18214338       0.00429716      -0.02869138      -0.00596514
C        1.23000000       6.39127000      10.19823594      -0.01667404       0.00962425      -0.00436413
C        7.38000000       0.00000000      10.15766637      -0.16888648      -0.09968080      -0.00323068
C        6.15000000       2.13042000      10.18215220       0.02435304       0.01463625      -0.00595406
C        4.92000000       4.26085000      10.20279694       0.00193466      -0.00145278      -0.00032230
C        3.69000000       6.39127000      10.18214455       0.02670729       0.01045202      -0.00596527
C        1.23005000       0.71011000      10.10148157       0.24708111      -0.14264928       0.00536753
C        0.00005000       2.84053000      10.10147540      -0.00198897       0.28882866       0.00536381
C       -1.22995000       4.97096000      10.18154842       0.02577127      -0.01290579      -0.00548513
C       -2.45995000       7.10138000      10.18155547      -0.00017995       0.03207239      -0.00548232
C        3.69005000       0.71011000      10.18155581      -0.02784539      -0.01586678      -0.00548129
C        2.46005000       2.84053000      10.15812436       0.16196008       0.09599318      -0.00351595
C        1.23005000       4.97096000      10.18154100      -0.02958136      -0.01290108      -0.00549098
C        0.00005000       7.10138000      10.20133300      -0.00193077       0.00113768       0.00033807
C        6.15005000       0.71011000      10.18155052       0.02401115      -0.01589215      -0.00548366
C        4.92005000       2.84053000      10.19908345      -0.00190362       0.02013457      -0.00511102
C        3.69005000       4.97096000      10.19907459       0.01425974      -0.00829176      -0.00511178
C        2.46005000       7.10138000      10.18154276      -0.00366914       0.03206151      -0.00549056
C        8.61005000       0.71011000      10.10147639      -0.25084872      -0.14253395       0.00536405
C        7.38005000       2.84053000      10.15812854      -0.16566265       0.09597758      -0.00350542
C        6.15005000       4.97096000      10.19908278      -0.01809258      -0.00830978      -0.00511125
C        4.92005000       7.10138000      10.15812491      -0.00186180      -0.18806668      -0.00351675
Li      -0.00000558       1.42028784      11.87271231      -0.00000374       0.00000230      -0.00200560
