77
Lattice="10.722900391 0.0 0.0 -5.361450195 9.286304141 0.0 0.0 0.0 24.0" Properties=species:S:1:pos:R:3:forces:R:3 energy=-708.0739919848393 free_energy=-708.0739919848393 stress="-0.06877737701673557 1.1905584762428522e-07 -1.789070469561327e-18 1.1905584762428522e-07 -0.06877848072075125 5.309937621584702e-18 -1.789070469561327e-18 5.309937621584702e-18 -0.00012361818405449165" pbc="T T T"
C        0.00000000       0.00000000      13.87274822      -0.07347964      -0.16998918      -0.00128657
C       -2.82184000       5.86504000      13.85858017      -0.00244945      -0.00274115       0.00145489
C       -3.10407000       8.30883000      13.86585284       0.02544352       0.00361215       0.00017153
C       -0.28223000       2.44378000      13.88997138      -0.20237506      -0.02460270       0.00166464
C       -0.56435000       4.88757000      13.87274619      -0.11028434       0.14685793      -0.00125822
C       -0.84652000       7.33126000      13.85926167      -0.00401033      -0.00597086       0.00309707
C        1.97532000       1.46621000      13.88998036       0.12088436      -0.16241180       0.00160944
C        1.69309000       3.91000000      13.88998745       0.08143586       0.19160375       0.00159975
C        1.41087000       6.35378000      13.86620759       0.02506008      -0.00200074      -0.00608922
C        1.12875000       8.79757000      13.85697250      -0.00065257      -0.00073865      -0.00192724
C        4.23270000       0.48874000      13.86620135      -0.01050651      -0.02156845      -0.00608500
C        3.95058000       2.93252000      13.87274623       0.17970917       0.02073954      -0.00127862
C        3.66836000       5.37631000      13.86585346      -0.01531811       0.01643027       0.00017267
C        3.38613000       7.82009000      13.85926346       0.01193151      -0.00008609       0.00310323
C        6.20797000       1.95505000      13.85925731      -0.00445805       0.00441922       0.00314903
C        5.92580000       4.39874000      13.85857787       0.00046383       0.00753327       0.00143052
C        5.64368000       6.84252000      13.85858431       0.00026467      -0.00135876       0.00137655
C        8.46552000       0.97748000      13.86621505      -0.01674670       0.02227392      -0.00613878
C        8.18329000       3.42126000      13.86586735      -0.00663054      -0.02202549       0.00009498
C       -4.51493000       8.14585000      13.86606052      -0.02298265       0.00320705      -0.00160301
C       -1.97521000       4.72459000      13.86606227       0.00954670       0.02082127      -0.00161732
C       -2.25744000       7.16838000      13.85911263       0.00004919       0.00980224       0.00739307
C        0.56440000       1.30333000      13.88977740      -0.08428887      -0.18974436       0.00749156
C        0.28217000       3.74712000      13.88977984      -0.12403769       0.16658813       0.00747095
C       -0.00005000       6.19090000      13.86570543      -0.01922728      -0.00738826       0.00470521
C       -0.28212000       8.63459000      13.85844138       0.00079382       0.00415536       0.00558740
C        2.82178000       0.32586000      13.87256936       0.11254538      -0.15084785       0.00370606
C        2.53956000       2.76964000      13.88978725       0.21123633       0.02042980       0.00746415
C        2.25749000       5.21333000      13.87257759       0.07070863       0.17221317       0.00370016
C        1.97527000       7.65711000      13.85843917      -0.00414286       0.00257191       0.00564704
C        4.79710000       1.79207000      13.86569937       0.00447417       0.02292949       0.00472634
C        4.51488000       4.23585000      13.86605283       0.01220662      -0.02075416      -0.00156047
C        4.23276000       6.67964000      13.85911243      -0.01057459      -0.00152020       0.00741952
C        3.95053000       9.12342000      13.86571198       0.01701445      -0.01840630       0.00467269
C        7.05449000       0.81459000      13.85844250       0.00367000      -0.00305587       0.00562515
C        6.77237000       3.25838000      13.85911811       0.00657248      -0.00656641       0.00737178
C        6.49014000       5.70216000      13.85682666       0.00213082      -0.00425357       0.00222689
C        9.02981000       2.28081000      13.87257813      -0.18389927      -0.02012518       0.00370560
C        0.00000000       0.00000000      10.12725178      -0.07347964      -0.16998918       0.00128657
C       -2.82184000       5.86504000      10.14141983      -0.00244945      -0.00274115      -0.00145489
C       -3.10407000       8.30883000      10.13414716       0.02544352       0.00361215      -0.00017153
C       -0.28223000       2.44378000      10.11002862      -0.20237506      -0.02460270      -0.00166464
C       -0.56435000       4.88757000      10.12725381      -0.11028434       0.14685793       0.00125822
C       -0.84652000       7.33126000      10.14073833      -0.00401033      -0.00597086      -0.00309707
C        1.97532000       1.46621000      10.11001964       0.12088436      -0.16241180      -0.00160944
C        1.69309000       3.91000000      10.11001255       0.08143586       0.19160375      -0.00159975
C        1.41087000       6.35378000      10.13379241       0.02506008      -0.00200074       0.00608922
C        1.12875000       8.79757000      10.14302750      -0.00065257      -0.00073865       0.00192724
C        4.23270000       0.48874000      10.13379865      -0.01050651      -0.02156845       0.00608500
C        3.95058000       2.93252000      10.12725377       0.17970917       0.02073954       0.00127862
C        3.66836000       5.37631000      10.13414654      -0.01531811       0.01643027      -0.00017267
C        3.38613000       7.82009000      10.14073654       0.01193151      -0.00008609      -0.00310323
C        6.20797000       1.95505000      10.14074269      -0.00445805       0.00441922      -0.00314903
C        5.92580000       4.39874000      10.14142213       0.00046383       0.00753327      -0.00143052
C        5.64368000       6.84252000      10.14141569       0.00026467      -0.00135876      -0.00137655
C        8.46552000       0.97748000      10.13378495      -0.01674670       0.02227392       0.00613878
C        8.18329000       3.42126000      10.13413265      -0.00663054      -0.02202549      -0.00009498
C       -4.51493000       8.14585000      10.13393948      -0.02298265       0.00320705       0.00160301
C       -1.97521000       4.72459000      10.13393773       0.00954670       0.02082127       0.00161732
C       -2.25744000       7.16838000      10.14088737       0.00004919       0.00980224      -0.00739307
C        0.56440000       1.30333000      10.11022260      -0.08428887      -0.18974436      -0.00749156
C        0.28217000       3.74712000      10.11022016      -0.12403769       0.16658813      -0.00747095
C       -0.00005000       6.19090000      10.13429457      -0.01922728      -0.00738826      -0.00470521
C       -0.28212000       8.63459000      10.14155862       0.00079382       0.00415536      -0.00558740
C        2.82178000       0.32586000      10.12743064       0.11254538      -0.15084785      -0.00370606
C        2.53956000       2.76964000      10.11021275       0.21123633       0.02042980      -0.00746415
C        2.25749000       5.21333000      10.12742241       0.07070863       0.17221317      -0.00370016
C        1.97527000       7.65711000      10.14156083      -0.00414286       0.00257191      -0.00564704
C        4.79710000       1.79207000      10.13430063       0.00447417       0.02292949      -0.00472634
C        4.51488000       4.23585000      10.13394717       0.01220662      -0.02075416       0.00156047
C        4.23276000       6.67964000      10.14088757      -0.01057459      -0.00152020      -0.00741952
C        3.95053000       9.12342000      10.13428802       0.01701445      -0.01840630      -0.00467269
C        7.05449000       0.81459000      10.14155750       0.00367000      -0.00305587      -0.00562515
C        6.77237000       3.25838000      10.14088189       0.00657248      -0.00656641      -0.00737178
C        6.49014000       5.70216000      10.14317334       0.00213082      -0.00425357      -0.00222689
C        9.02981000       2.28081000      10.12742187      -0.18389927      -0.02012518      -0.00370560
Li       1.12878108       2.60670102      12.00000000      -0.00015416      -0.00006488      -0.00000000
