77
Lattice="10.722900391 0.0 0.0 -5.361450195 9.286304141 0.0 0.0 0.0 24.0" Properties=species:S:1:pos:R:3:forces:R:3 energy=-708.037975116387 free_energy=-708.037975116387 stress="-0.06812498615547088 4.605520253047192e-07 -2.5448212554547023e-08 4.605520253047192e-07 -0.06812595591555463 -5.892279699857317e-08 -2.5448212554547023e-08 -5.892279699857317e-08 -9.555023669274425e-05" pbc="T T T"
C        0.00000000       0.00000000      13.92197620      -0.11230028      -0.26185669       0.00385746
C       -2.82184000       5.86504000      13.78574197      -0.00256347      -0.01556388       0.00055764
C       -3.10407000       8.30883000      13.85356801       0.06405524      -0.08243272       0.00494234
C       -0.28223000       2.44378000      13.92201627      -0.16683246       0.22734720       0.00385852
C       -0.56435000       4.88757000      13.81337876      -0.00083551      -0.01983795       0.00371453
C       -0.84652000       7.33126000      13.78174547       0.00596391       0.00501655       0.00312241
C        1.97532000       1.46621000      13.92200717       0.28004760       0.03774808       0.00385559
C        1.69309000       3.91000000      13.85362989       0.03823190       0.09431452       0.00494477
C        1.41087000       6.35378000      13.78175979      -0.00422563       0.00484497       0.00312405
C        1.12875000       8.79757000      13.78175305      -0.00266832      -0.00872570       0.00312175
C        4.23270000       0.48874000      13.81335241      -0.01297169       0.00788237       0.00371324
C        3.95058000       2.93252000      13.81089058      -0.01502468      -0.01311136       0.00443900
C        3.66836000       5.37631000      13.78576142       0.01561272       0.00347890       0.00055556
C        3.38613000       7.82009000      13.81334871       0.01945798       0.00562997       0.00371277
C        6.20797000       1.95505000      13.78577164      -0.00860868       0.00933229       0.00055594
C        5.92580000       4.39874000      13.76866055       0.00009058       0.00299700       0.00439020
C        5.64368000       6.84252000      13.81083307      -0.00902996       0.01684506       0.00443911
C        8.46552000       0.97748000      13.85358400      -0.10624017      -0.01109336       0.00494492
C        8.18329000       3.42126000      13.81085795       0.01605929      -0.00284996       0.00444134
C       -4.51493000       8.14585000      13.86979459       0.04055970      -0.14249689      -0.00148821
C       -1.97521000       4.72459000      13.79911776      -0.01516701       0.01660687       0.00040172
C       -2.25744000       7.16838000      13.80104541      -0.01276275       0.02452161       0.00035468
C        0.56440000       1.30333000      13.97956485      -0.00184816       0.00053269      -0.00800681
C        0.28217000       3.74712000      13.87031138       0.00707527       0.14916378      -0.00164928
C       -0.00005000       6.19090000      13.78311286       0.01675404      -0.00128305       0.00176210
C       -0.28212000       8.63459000      13.78310293      -0.00963337      -0.00983129       0.00176304
C        2.82178000       0.32586000      13.87025994       0.12774368      -0.08350311      -0.00164507
C        2.53956000       2.76964000      13.86984662       0.11037822       0.10378327      -0.00149278
C        2.25749000       5.21333000      13.80107701      -0.01778000      -0.01853457       0.00035340
C        1.97527000       7.65711000      13.78310292      -0.00762664       0.01151831       0.00176420
C        4.79710000       1.79207000      13.79913623       0.01743552       0.00336575       0.00040073
C        4.51488000       4.23585000      13.78121912      -0.00460214       0.00227233       0.00193065
C        4.23276000       6.67964000      13.79910509      -0.00940869      -0.01697416       0.00040247
C        3.95053000       9.12342000      13.87026367      -0.13187918      -0.06987589      -0.00164535
C        7.05449000       0.81459000      13.80106825       0.02968167      -0.00094231       0.00035516
C        6.77237000       3.25838000      13.78121047       0.00128212      -0.00684166       0.00192936
C        6.49014000       5.70216000      13.78118157       0.00707744      -0.00000039       0.00193042
C        9.02981000       2.28081000      13.86981894      -0.14547791       0.03856474      -0.00149079
C        0.00000000       0.00000000      10.10000778      -0.11793962      -0.27290682      -0.00075620
C       -2.82184000       5.86504000      10.20816719       0.00201835       0.01454796       0.00158347
C       -3.10407000       8.30883000      10.15789965       0.12605770      -0.16219922      -0.00170178
C       -0.28223000       2.44378000      10.09998415      -0.17391761       0.23753150      -0.00075436
C       -0.56435000       4.88757000      10.18671760      -0.02623267      -0.01698190      -0.00095748
C       -0.84652000       7.33126000      10.21367351      -0.00170226       0.00602571      -0.00152501
C        1.97532000       1.46621000      10.09995678       0.29173172       0.03741758      -0.00075481
C        1.69309000       3.91000000      10.15786222       0.07817986       0.18406156      -0.00170212
C        1.41087000       6.35378000      10.21367417       0.00023217      -0.00134982      -0.00152314
C        1.12875000       8.79757000      10.21369540       0.00157263      -0.00103017      -0.00152297
C        4.23270000       0.48874000      10.18670834       0.00185292       0.02964515      -0.00095868
C        3.95058000       2.93252000      10.18702147       0.00751562      -0.02891459      -0.00166952
C        3.66836000       5.37631000      10.20814866      -0.01238930      -0.00742063       0.00158837
C        3.38613000       7.82009000      10.18674823       0.02768066      -0.01974282      -0.00095845
C        6.20797000       1.95505000      10.20816574       0.01368278      -0.01189429       0.00158534
C        5.92580000       4.39874000      10.21981195      -0.00013579       0.00145139      -0.00323730
C        5.64368000       6.84252000      10.18705645      -0.03417139       0.00807534      -0.00167340
C        8.46552000       0.97748000      10.15793067      -0.20186830      -0.02210701      -0.00170192
C        8.18329000       3.42126000      10.18706713       0.01970843       0.02401923      -0.00167300
C       -3.66836000       7.00549000      10.18626158       0.02713502       0.01646841      -0.00236969
C       -1.12869000       3.58414000      10.15793972      -0.11654887       0.15795545      -0.00340717
C       -1.41092000       6.02793000      10.20832019       0.00031568      -0.01650986       0.00075609
C       -1.69304000       8.47171000      10.18740788      -0.02937805      -0.02323424      -0.00366633
C        1.41092000       0.16288000      10.09985035       0.17088031      -0.22901438      -0.00182982
C        1.12869000       2.60667000      10.09983056       0.11618077       0.26282217      -0.00183383
C        0.84657000       5.05045000      10.18739961       0.03030711      -0.01071551      -0.00366730
C        0.56435000       7.49423000      10.22069244       0.00204582      -0.00052017      -0.00526346
C        3.38618000       1.62919000      10.15789672       0.19044404       0.02249032      -0.00341193
C        3.10396000       4.07297000      10.18622297      -0.02547133       0.01225577      -0.00236889
C        2.82189000       6.51666000      10.20832346       0.00879057       0.01215372       0.00075509
C        2.53967000       8.96045000      10.18745044      -0.00892955       0.03544009      -0.00366450
C        5.64357000       0.65171000      10.20832473      -0.01135985       0.00629763       0.00075584
C        5.36150000       3.09540000      10.21283550      -0.00917876       0.00407436      -0.00295821
C        5.07928000       5.53919000      10.21284156       0.00501819       0.00381660      -0.00295827
C        4.79705000       7.98297000      10.15794861      -0.07393833      -0.17636846      -0.00341126
C        7.61889000       2.11793000      10.18627214       0.00362254      -0.03321711      -0.00237007
C        7.33666000       4.56171000      10.21285077       0.00455234      -0.00713186      -0.00295918
C        9.87638000       1.14045000      10.09988024      -0.28638812      -0.03530333      -0.00183059
Li       0.56445041       1.30340302      11.87717695       0.00000439       0.00000096       0.00179565
