85
Lattice="11.273099899 0.0 0.0 -5.63654995 9.762790892 0.0 0.0 0.0 24.0" Properties=species:S:1:pos:R:3:forces:R:3 energy=-782.4001886759437 free_energy=-782.4001886759437 stress="-0.06860243606402994 3.6102672395848477e-06 3.093737716485521e-18 3.6102672395848477e-06 -0.06860157431961837 3.707676824211219e-18 3.093737716485521e-18 3.707676824211219e-18 -1.3874559418059708e-05" pbc="T T T"
C        0.00000000       0.00000000      13.87898279      -0.03499784      -0.18356429       0.00613047
C       -0.80524000       2.32452000      13.89257111      -0.19390011      -0.07042192       0.00387568
C       -1.61042000       4.64894000      13.87898781      -0.14216547       0.12309247       0.00614132
C       -2.41566000       6.97346000      13.86989101      -0.01300245      -0.01726894       0.00682264
C       -3.22084000       9.29789000      13.87519238       0.01795450       0.01256932      -0.00412848
C        1.61048000       1.85962000      13.89257461       0.15181829      -0.13660209       0.00387621
C        0.80518000       4.18404000      13.89256856       0.04235194       0.20290520       0.00388085
C       -0.00006000       6.50856000      13.87562489       0.02753056       0.00042709      -0.00323217
C       -0.80524000       8.83298000      13.87027183      -0.00404397       0.00066605      -0.00035435
C        4.02607000       1.39471000      13.87562448      -0.00984317      -0.02246883      -0.00323388
C        3.22089000       3.71914000      13.87898503       0.17548415       0.06367359       0.00612747
C        2.41566000       6.04366000      13.87519197      -0.02145791       0.01130132      -0.00413399
C        1.61048000       8.36808000      13.87026899      -0.00014603      -0.00286099      -0.00035762
C        6.44179000       0.92981000      13.87027080       0.00189730       0.00357806      -0.00035976
C        5.63661000       3.25423000      13.86988888      -0.01048286       0.01971897       0.00683060
C        4.83137000       5.57875000      13.87132519       0.00307228      -0.00677878      -0.00750170
C        4.02607000       7.90317000      13.86988648       0.01998181       0.00061103       0.00682968
C        8.85739000       0.46490000      13.87562053      -0.01070024       0.02043085      -0.00322315
C        8.05221000       2.78933000      13.87519369      -0.00013282      -0.02115538      -0.00413640
C        7.24697000       5.11385000      13.87132860       0.00383725       0.00796283      -0.00751794
C        6.44179000       7.43827000      13.87132473      -0.01171727       0.00128295      -0.00750454
C        7.51538000       6.50856000      13.87027158       0.00658427      -0.00290563      -0.00035396
C       -4.56290000       8.83298000      13.87562163      -0.02456013      -0.00189830      -0.00323374
C        0.26841000       1.39471000      13.89257218      -0.03976504      -0.20213747       0.00386253
C       -0.53677000       3.71914000      13.89257348      -0.15838341       0.13604235       0.00386870
C       -1.34201000       6.04366000      13.87519630      -0.02475263      -0.01306305      -0.00414872
C       -2.14730000       8.36808000      13.86989013       0.01490711       0.01620377       0.00682231
C        2.68401000       0.92981000      13.87898596       0.14458594      -0.12324348       0.00613507
C        1.87883000       3.25423000      13.89257048       0.19542224       0.07053325       0.00386013
C        1.07359000       5.57875000      13.87898443       0.03641200       0.18300390       0.00612270
C        0.26841000       7.90317000      13.87132591       0.00906563       0.00541852      -0.00751287
C        5.09972000       0.46490000      13.87132868      -0.00260095      -0.00848773      -0.00752500
C        4.29449000       2.78942000      13.87519378       0.00285615       0.02138854      -0.00414153
C        3.48931000       5.11385000      13.87562231       0.01286156      -0.01943568      -0.00323511
C        2.68407000       7.43837000      13.86988802      -0.01923968      -0.00032423       0.00681793
C        7.51544000       0.00000000      13.87132456      -0.00970590       0.00665126      -0.00751772
C        6.71020000       2.32452000      13.86988838       0.00588137      -0.02091179       0.00682693
C        5.90491000       4.64894000      13.87027132       0.00040920      -0.00441058      -0.00036184
C        5.09967000       6.97346000      13.87026936       0.00107429       0.00258126      -0.00036838
C        4.29449000       9.29789000      13.87518953       0.02125897      -0.01221090      -0.00413181
C        9.12580000       1.85962000      13.87898476      -0.17424278      -0.06330436       0.00612651
C        8.32062000       4.18404000      13.87562602       0.01059368       0.02340590      -0.00323932
C        0.00000000       0.00000000      10.12101721      -0.03499784      -0.18356429      -0.00613047
C       -0.80524000       2.32452000      10.10742889      -0.19390011      -0.07042192      -0.00387568
C       -1.61042000       4.64894000      10.12101219      -0.14216547       0.12309247      -0.00614132
C       -2.41566000       6.97346000      10.13010899      -0.01300245      -0.01726894      -0.00682264
C       -3.22084000       9.29789000      10.12480762       0.01795450       0.01256932       0.00412848
C        1.61048000       1.85962000      10.10742539       0.15181829      -0.13660209      -0.00387621
C        0.80518000       4.18404000      10.10743144       0.04235194       0.20290520      -0.00388085
C       -0.00006000       6.50856000      10.12437511       0.02753056       0.00042709       0.00323217
C       -0.80524000       8.83298000      10.12972817      -0.00404397       0.00066605       0.00035435
C        4.02607000       1.39471000      10.12437552      -0.00984317      -0.02246883       0.00323388
C        3.22089000       3.71914000      10.12101497       0.17548415       0.06367359      -0.00612747
C        2.41566000       6.04366000      10.12480803      -0.02145791       0.01130132       0.00413399
C        1.61048000       8.36808000      10.12973101      -0.00014603      -0.00286099       0.00035762
C        6.44179000       0.92981000      10.12972920       0.00189730       0.00357806       0.00035976
C        5.63661000       3.25423000      10.13011112      -0.01048286       0.01971897      -0.00683060
C        4.83137000       5.57875000      10.12867481       0.00307228      -0.00677878       0.00750170
C        4.02607000       7.90317000      10.13011352       0.01998181       0.00061103      -0.00682968
C        8.85739000       0.46490000      10.12437947      -0.01070024       0.02043085       0.00322315
C        8.05221000       2.78933000      10.12480631      -0.00013282      -0.02115538       0.00413640
C        7.24697000       5.11385000      10.12867140       0.00383725       0.00796283       0.00751794
C        6.44179000       7.43827000      10.12867527      -0.01171727       0.00128295       0.00750454
C        7.51538000       6.50856000      10.12972842       0.00658427      -0.00290563       0.00035396
C       -4.56290000       8.83298000      10.12437837      -0.02456013      -0.00189830       0.00323374
C        0.26841000       1.39471000      10.10742782      -0.03976504      -0.20213747      -0.00386253
C       -0.53677000       3.71914000      10.10742652      -0.15838341       0.13604235      -0.00386870
C       -1.34201000       6.04366000      10.12480370      -0.02475263      -0.01306305       0.00414872
C       -2.14730000       8.36808000      10.13010987       0.01490711       0.01620377      -0.00682231
C        2.68401000       0.92981000      10.12101404       0.14458594      -0.12324348      -0.00613507
C        1.87883000       3.25423000      10.10742952       0.19542224       0.07053325      -0.00386013
C        1.07359000       5.57875000      10.12101557       0.03641200       0.18300390      -0.00612270
C        0.26841000       7.90317000      10.12867409       0.00906563       0.00541852       0.00751287
C        5.09972000       0.46490000      10.12867132      -0.00260095      -0.00848773       0.00752500
C        4.29449000       2.78942000      10.12480622       0.00285615       0.02138854       0.00414153
C        3.48931000       5.11385000      10.12437769       0.01286156      -0.01943568       0.00323511
C        2.68407000       7.43837000      10.13011198      -0.01923968      -0.00032423      -0.00681793
C        7.51544000       0.00000000      10.12867544      -0.00970590       0.00665126       0.00751772
C        6.71020000       2.32452000      10.13011162       0.00588137      -0.02091179      -0.00682693
C        5.90491000       4.64894000      10.12972868       0.00040920      -0.00441058       0.00036184
C        5.09967000       6.97346000      10.12973064       0.00107429       0.00258126       0.00036838
C        4.29449000       9.29789000      10.12481047       0.02125897      -0.01221090       0.00413181
C        9.12580000       1.85962000      10.12101524      -0.17424278      -0.06330436      -0.00612651
C        8.32062000       4.18404000      10.12437398       0.01059368       0.02340590       0.00323932
Li       0.53680446       2.78933289      12.00000000       0.00000032       0.00001183      -0.00000000
