85
Lattice="11.273099899 0.0 0.0 -5.63654995 9.762790892 0.0 0.0 0.0 24.0" Properties=species:S:1:pos:R:3:forces:R:3 energy=-782.373219013399 free_energy=-782.373219013399 stress="-0.06786597094182946 3.587826491981282e-06 -8.92356348566736e-08 3.587826491981282e-06 -0.06786495345168705 -4.922256110358044e-08 -8.92356348566736e-08 -4.922256110358044e-08 -5.674529969488987e-05" pbc="T T T"
C        0.00000000       0.00000000      13.92907932      -0.05327827      -0.28348534      -0.00461892
C       -0.80524000       2.32452000      13.92904154      -0.21824196       0.18497412      -0.00461931
C       -1.61042000       4.64894000      13.81576852      -0.00175543      -0.01749858       0.00109495
C       -2.41566000       6.97346000      13.78376188      -0.00844239      -0.01399893       0.00032340
C       -3.22084000       9.29789000      13.85954564       0.07801486      -0.06947958      -0.00026081
C        1.61048000       1.85962000      13.92900080       0.26850494       0.09351991      -0.00461809
C        0.80518000       4.18404000      13.85946932       0.02369785       0.10670580      -0.00027363
C       -0.00006000       6.50856000      13.78073416      -0.00173940       0.00276965       0.00236652
C       -0.80524000       8.83298000      13.78075102       0.00769141       0.00246274       0.00235463
C        4.02607000       1.39471000      13.81576425      -0.01508557       0.00978533       0.00109188
C        3.22089000       3.71914000      13.81300593      -0.01007330      -0.01457376       0.00239301
C        2.41566000       6.04366000      13.78377018       0.01271861      -0.00199440       0.00032647
C        1.61048000       8.36808000      13.78079091      -0.00423011      -0.00474830       0.00236458
C        6.44179000       0.92981000      13.78379027      -0.00695728       0.01102530       0.00033327
C        5.63661000       3.25423000      13.76821504      -0.01058747       0.00263693       0.00164281
C        4.83137000       5.57875000      13.76824634       0.00067825       0.00562821       0.00167364
C        4.02607000       7.90317000      13.81588740       0.01783638       0.01208039       0.00108176
C        8.85739000       0.46490000      13.85962719      -0.09819008      -0.03490795      -0.00025481
C        8.05221000       2.78933000      13.81307929       0.01971346       0.00375630       0.00238539
C        7.24697000       5.11385000      13.76823032       0.00402357      -0.00680380       0.00166285
C        6.44179000       7.43827000      13.81311207      -0.01296029       0.01961837       0.00238899
C        7.51538000       6.50856000      13.78289583       0.01018240       0.00999314      -0.00145295
C       -4.56290000       8.83298000      13.87582796       0.06949035      -0.13620982       0.00194574
C        0.26841000       1.39471000      13.98533471      -0.00080106      -0.00021868       0.00145653
C       -0.53677000       3.71914000      13.87621642      -0.03155701       0.14981395       0.00246190
C       -1.34201000       6.04366000      13.78548421       0.00996169      -0.00001042      -0.00141967
C       -2.14730000       8.36808000      13.80118200      -0.01478508       0.01769761       0.00353433
C        2.68401000       0.92981000      13.87623107       0.14619696      -0.05057549       0.00244753
C        1.87883000       3.25423000      13.87571234       0.08463383       0.13160402       0.00195053
C        1.07359000       5.57875000      13.80115204      -0.00372311      -0.02385460       0.00352971
C        0.26841000       7.90317000      13.76839466       0.00013766       0.00351514       0.00284057
C        5.09972000       0.46490000      13.78550574      -0.00532587      -0.01211908      -0.00141454
C        4.29449000       2.78942000      13.79645060       0.02261833       0.00236507       0.00299410
C        3.48931000       5.11385000      13.78287631      -0.01678304       0.00190546      -0.00146662
C        2.68407000       7.43837000      13.78555663      -0.00861736       0.00759619      -0.00140135
C        7.51544000       0.00000000      13.80124096       0.01924961       0.00731183       0.00351485
C        6.71020000       2.32452000      13.78289599       0.00581630      -0.01743829      -0.00144507
C        5.90491000       4.64894000      13.76183330       0.00320281       0.00008566       0.00434250
C        5.09967000       6.97346000      13.79654983      -0.00193971      -0.02230015       0.00298476
C        4.29449000       9.29789000      13.87635331      -0.11391691      -0.09859604       0.00246647
C        9.12580000       1.85962000      13.87584389      -0.15095718       0.00599582       0.00194141
C        8.32062000       4.18404000      13.79648328      -0.01440392       0.01599715       0.00298600
C        0.00000000       0.00000000      10.09338269      -0.05610457      -0.29293321       0.00192548
C       -0.80524000       2.32452000      10.09346830      -0.22293052       0.19197210       0.00193426
C       -1.61042000       4.64894000      10.18501490      -0.02598957      -0.01867249      -0.00151995
C       -2.41566000       6.97346000      10.21246929       0.01274534       0.01905002       0.00108638
C       -3.22084000       9.29789000      10.15465764       0.15005073      -0.13166944      -0.00372692
C        1.61048000       1.85962000      10.09348742       0.28040868       0.09441540       0.00192914
C        0.80518000       4.18404000      10.15474302       0.03993756       0.19854547      -0.00372279
C       -0.00006000       6.50856000      10.21825840       0.01553738      -0.00936378      -0.00085060
C       -0.80524000       8.83298000      10.21825144      -0.01118250      -0.00563142      -0.00085618
C        4.02607000       1.39471000      10.18502699      -0.00165372       0.02964422      -0.00151375
C        3.22089000       3.71914000      10.18495448       0.01833872      -0.02805437      -0.00163354
C        2.41566000       6.04366000      10.21248471      -0.02484351      -0.00257203       0.00109028
C        1.61048000       8.36808000      10.21822181      -0.00008160       0.01398555      -0.00085238
C        6.44179000       0.92981000      10.21250684       0.01138390      -0.02308358       0.00108865
C        5.63661000       3.25423000      10.21881246      -0.00481448      -0.00492179      -0.00069084
C        4.83137000       5.57875000      10.21876023      -0.00843923       0.00387500      -0.00069591
C        4.02607000       7.90317000      10.18489796       0.03305812      -0.01001089      -0.00152850
C        8.85739000       0.46490000      10.15464713      -0.18709629      -0.06819253      -0.00372550
C        8.05221000       2.78933000      10.18493294       0.01722462       0.03265570      -0.00163493
C        7.24697000       5.11385000      10.21877302       0.00756264       0.00141971      -0.00069157
C        6.44179000       7.43827000      10.18482339      -0.03419922       0.00251000      -0.00163684
C        9.39427000       3.25423000      10.15428315      -0.14753421       0.12857085      -0.00516273
C       -2.68407000       5.57875000      10.21163997      -0.01048611      -0.02392952       0.00253081
C       -3.48925000       7.90317000      10.18473518       0.02311275       0.02563006      -0.00219667
C        1.34206000       0.46490000      10.09326116       0.21849404      -0.18933956       0.00230602
C        0.53688000       2.78933000      10.09333574       0.05060093       0.28617958       0.00230892
C       -0.26836000       5.11385000      10.18597825       0.03344909      -0.00315898      -0.00323011
C       -1.07365000       7.43827000      10.22073263      -0.00511011       0.00107542      -0.00105613
C        3.75766000       0.00000000      10.18595876      -0.01746281      -0.03011410      -0.00323115
C        2.95248000       2.32442000      10.15430157       0.18281878       0.06715057      -0.00516300
C        2.14724000       4.64894000      10.18483219      -0.03176580       0.00981869      -0.00218751
C        1.34206000       6.97337000      10.22072680       0.00252390      -0.00089389      -0.00105778
C        0.53683000       9.29789000      10.22073366       0.00078800       0.00605152      -0.00105443
C        5.36814000       1.85962000      10.21168134      -0.01475464       0.01673677       0.00252944
C        4.56296000       4.18404000      10.21596311      -0.00340867      -0.01349016      -0.00180306
C        3.75772000       6.50856000      10.21160272       0.02360798      -0.00055244       0.00252498
C        2.95254000       8.83298000      10.18588505      -0.01912847       0.03432858      -0.00323300
C        7.78385000       1.39471000      10.18480287       0.00474977      -0.03523313      -0.00219478
C        6.97856000       3.71914000      10.21596054       0.01672784       0.00593868      -0.00180188
C        6.17332000       6.04366000      10.21589982      -0.00797407       0.00703300      -0.00181238
C        5.36814000       8.36808000      10.15414915      -0.03509954      -0.18939338      -0.00516582
C       10.19945000       0.92981000      10.09324357      -0.27307572      -0.09540206       0.00230488
Li       0.26819803       1.39438773      11.87702522      -0.00000293      -0.00000506       0.00043607
