101
Lattice="12.300000191 0.0 0.0 -6.150000095 10.652112632 0.0 0.0 0.0 24.0" Properties=species:S:1:pos:R:3:forces:R:3 energy=-931.0562390276046 free_energy=-931.0562390276046 stress="-0.06824709433479983 -1.534405147495617e-05 5.623195434633585e-18 -1.534405147495617e-05 -0.0682653594408855 8.204350340210002e-18 5.623195434633585e-18 8.204350340210002e-18 -4.638212339704547e-06" pbc="T T T"
C        0.00000000       0.00000000      13.89490222      -0.17538311      -0.10379033       0.00667343
C       11.07000000       2.13042000      13.88185740      -0.15892608       0.09202532      -0.00446605
C       -2.46000000       4.26085000      13.87114769      -0.00316803      -0.00524770      -0.00154054
C       -3.69000000       6.39127000      13.87114216      -0.00354661      -0.00451384      -0.00153773
C       -4.92000000       8.52169000      13.88185023       0.00222636      -0.18734879      -0.00445446
C        2.46000000       0.00000000      13.89490595       0.17981657      -0.10369532       0.00664367
C        1.23000000       2.13042000      13.89490260       0.00229510       0.20410624       0.00667068
C        0.00000000       4.26085000      13.87682222       0.02317103       0.00584322       0.00073584
C       -1.23000000       6.39127000      13.86869779      -0.01152349      -0.00958861       0.00695642
C       -2.46000000       8.52169000      13.87681615       0.01922959       0.01303440       0.00076662
C        4.92000000       0.00000000      13.87681558      -0.00166987      -0.02305036       0.00076801
C        3.69000000       2.13042000      13.88184947       0.16335636       0.09200613      -0.00445466
C        2.46000000       4.26085000      13.87681688      -0.01862342       0.00583091       0.00075325
C        1.23000000       6.39127000      13.87117001       0.00230933       0.00530942      -0.00382962
C        0.00000000       8.52169000      13.87117000       0.00829605      -0.00478941      -0.00383848
C        7.38000000       0.00000000      13.86869779       0.00231435       0.01476161       0.00695627
C        6.15000000       2.13042000      13.87114166       0.00190486       0.00546293      -0.00153725
C        4.92000000       4.26085000      13.87114316       0.00775679      -0.00525808      -0.00154287
C        3.69000000       6.39127000      13.86869804       0.01613722      -0.00958410       0.00695136
C        2.46000000       8.52169000      13.87117011      -0.00367538      -0.00478834      -0.00382789
C        9.84000000       0.00000000      13.87682249       0.00624737      -0.02303052       0.00073450
C        8.61000000       2.13042000      13.87114774       0.00267909       0.00547273      -0.00154097
C        7.38000000       4.26085000      13.87080888       0.00231220      -0.00166048      -0.00945249
C        6.15000000       6.39127000      13.87114372       0.00815003      -0.00451708      -0.00154379
C        4.92000000       8.52169000      13.87681771      -0.01464170       0.01305062       0.00075054
C        0.00006000       1.42025000      13.89490117      -0.17980837       0.10359835       0.00668027
C       -1.22994000       3.55067000      13.87682408      -0.01923228      -0.01301661       0.00074470
C       -2.45994000       5.68109000      13.86869769       0.01152315       0.00958951       0.00695981
C       -3.68994000       7.81151000      13.87681574      -0.02317350      -0.00584541       0.00075440
C       -4.91994000       9.94194000      13.89490479      -0.00230800      -0.20403877       0.00665384
C        2.46006000       1.42025000      13.89490493       0.17538749       0.10370777       0.00664963
C        1.23006000       3.55067000      13.88185204      -0.00222908       0.18735956      -0.00445683
C        0.00006000       5.68109000      13.87114574       0.00354101       0.00451429      -0.00154213
C       -1.22994000       7.81151000      13.87114319       0.00316437       0.00524589      -0.00154019
C       -2.45994000       9.94194000      13.88185297       0.15893652      -0.09195740      -0.00446380
C        4.92006000       1.42025000      13.87681478      -0.00624327       0.02293982       0.00075553
C        3.69006000       3.55067000      13.87681549       0.01464147      -0.01303634       0.00075375
C        2.46006000       5.68109000      13.87114411      -0.00814862       0.00451900      -0.00154170
C        1.23006000       7.81151000      13.87080896      -0.00231196       0.00166095      -0.00945299
C        0.00006000       9.94194000      13.87114290      -0.00268274      -0.00539644      -0.00154016
C        7.38006000       1.42025000      13.86869772      -0.00230963      -0.01485489       0.00695794
C        6.15006000       3.55067000      13.87116899       0.00367517       0.00480351      -0.00383752
C        4.92006000       5.68109000      13.86869818      -0.01613708       0.00958604       0.00694441
C        3.69006000       7.81151000      13.87114463      -0.00775565       0.00525733      -0.00154122
C        2.46006000       9.94194000      13.87114598      -0.00190932      -0.00538592      -0.00154162
C        9.84006000       1.42025000      13.87682428       0.00167134       0.02295742       0.00074358
C        8.61006000       3.55067000      13.87117176      -0.00829087       0.00480610      -0.00382420
C        7.38006000       5.68109000      13.87116923      -0.00230525      -0.00530519      -0.00383624
C        6.15006000       7.81151000      13.87681666       0.01862845      -0.00582716       0.00075151
C        4.92006000       9.94194000      13.88185229      -0.16335264      -0.09192905      -0.00445751
C        0.00000000       0.00000000      10.10509778      -0.17538311      -0.10379033      -0.00667343
C       11.07000000       2.13042000      10.11814260      -0.15892608       0.09202532       0.00446605
C       -2.46000000       4.26085000      10.12885231      -0.00316803      -0.00524770       0.00154054
C       -3.69000000       6.39127000      10.12885784      -0.00354661      -0.00451384       0.00153773
C       -4.92000000       8.52169000      10.11814977       0.00222636      -0.18734879       0.00445446
C        2.46000000       0.00000000      10.10509405       0.17981657      -0.10369532      -0.00664367
C        1.23000000       2.13042000      10.10509740       0.00229510       0.20410624      -0.00667068
C        0.00000000       4.26085000      10.12317778       0.02317103       0.00584322      -0.00073584
C       -1.23000000       6.39127000      10.13130221      -0.01152349      -0.00958861      -0.00695642
C       -2.46000000       8.52169000      10.12318385       0.01922959       0.01303440      -0.00076662
C        4.92000000       0.00000000      10.12318442      -0.00166987      -0.02305036      -0.00076801
C        3.69000000       2.13042000      10.11815053       0.16335636       0.09200613       0.00445466
C        2.46000000       4.26085000      10.12318312      -0.01862342       0.00583091      -0.00075325
C        1.23000000       6.39127000      10.12882999       0.00230933       0.00530942       0.00382962
C        0.00000000       8.52169000      10.12883000       0.00829605      -0.00478941       0.00383848
C        7.38000000       0.00000000      10.13130221       0.00231435       0.01476161      -0.00695627
C        6.15000000       2.13042000      10.12885834       0.00190486       0.00546293       0.00153725
C        4.92000000       4.26085000      10.12885684       0.00775679      -0.00525808       0.00154287
C        3.69000000       6.39127000      10.13130196       0.01613722      -0.00958410      -0.00695136
C        2.46000000       8.52169000      10.12882989      -0.00367538      -0.00478834       0.00382789
C        9.84000000       0.00000000      10.12317751       0.00624737      -0.02303052      -0.00073450
C        8.61000000       2.13042000      10.12885226       0.00267909       0.00547273       0.00154097
C        7.38000000       4.26085000      10.12919112       0.00231220      -0.00166048       0.00945249
C        6.15000000       6.39127000      10.12885628       0.00815003      -0.00451708       0.00154379
C        4.92000000       8.52169000      10.12318229      -0.01464170       0.01305062      -0.00075054
C        0.00006000       1.42025000      10.10509883      -0.17980837       0.10359835      -0.00668027
C       -1.22994000       3.55067000      10.12317592      -0.01923228      -0.01301661      -0.00074470
C       -2.45994000       5.68109000      10.13130231       0.01152315       0.00958951      -0.00695981
C       -3.68994000       7.81151000      10.12318426      -0.02317350      -0.00584541      -0.00075440
C       -4.91994000       9.94194000      10.10509521      -0.00230800      -0.20403877      -0.00665384
C        2.46006000       1.42025000      10.10509507       0.17538749       0.10370777      -0.00664963
C        1.23006000       3.55067000      10.11814796      -0.00222908       0.18735956       0.00445683
C        0.00006000       5.68109000      10.12885426       0.00354101       0.00451429       0.00154213
C       -1.22994000       7.81151000      10.12885681       0.00316437       0.00524589       0.00154019
C       -2.45994000       9.94194000      10.11814703       0.15893652      -0.09195740       0.00446380
C        4.92006000       1.42025000      10.12318522      -0.00624327       0.02293982      -0.00075553
C        3.69006000       3.55067000      10.12318451       0.01464147      -0.01303634      -0.00075375
C        2.46006000       5.68109000      10.12885589      -0.00814862       0.00451900       0.00154170
C        1.23006000       7.81151000      10.12919104      -0.00231196       0.00166095       0.00945299
C        0.00006000       9.94194000      10.12885710      -0.00268274      -0.00539644       0.00154016
C        7.38006000       1.42025000      10.13130228      -0.00230963      -0.01485489      -0.00695794
C        6.15006000       3.55067000      10.12883101       0.00367517       0.00480351       0.00383752
C        4.92006000       5.68109000      10.13130182      -0.01613708       0.00958604      -0.00694441
C        3.69006000       7.81151000      10.12885537      -0.00775565       0.00525733       0.00154122
C        2.46006000       9.94194000      10.12885402      -0.00190932      -0.00538592       0.00154162
C        9.84006000       1.42025000      10.12317572       0.00167134       0.02295742      -0.00074358
C        8.61006000       3.55067000      10.12882824      -0.00829087       0.00480610       0.00382420
C        7.38006000       5.68109000      10.12883077      -0.00230525      -0.00530519       0.00383624
C        6.15006000       7.81151000      10.12318334       0.01862845      -0.00582716      -0.00075151
C        4.92006000       9.94194000      10.11814771      -0.16335264      -0.09192905       0.00445751
Li       1.23004753       0.71011510      12.00000000      -0.00003064       0.00001419       0.00000000
