101
Lattice="12.300000191 0.0 0.0 -6.150000095 10.652112632 0.0 0.0 0.0 24.0" Properties=species:S:1:pos:R:3:forces:R:3 energy=-931.0500152344563 free_energy=-931.0500152344563 stress="-0.06743939368502255 -1.535758366822842e-05 3.378507578540741e-08 -1.535758366822842e-05 -0.0674575425487943 -5.6758797191914575e-09 3.378507578540741e-08 -5.6758797191914575e-09 -5.218334739765476e-05" pbc="T T T"
C        0.00000000       0.00000000      13.93930183       0.00216524      -0.29321073       0.00218163
C       11.07000000       2.13042000      13.93934268      -0.25070358       0.14500503       0.00218352
C       -2.46000000       4.26085000      13.81881635       0.00697784      -0.01742189       0.00089014
C       -3.69000000       6.39127000      13.76408791      -0.00426542      -0.00542718      -0.00405755
C       -4.92000000       8.52169000      13.81877407      -0.00902150       0.01067136       0.00088781
C        2.46000000       0.00000000      13.86772631       0.10202313      -0.05877814       0.00195150
C        1.23000000       2.13042000      13.93930006       0.25511186       0.14504851       0.00218157
C        0.00000000       4.26085000      13.86771968       0.00233213       0.11349342       0.00194986
C       -1.23000000       6.39127000      13.77897173      -0.00559646       0.00333253      -0.00045656
C       -2.46000000       8.52169000      13.77897822       0.00265699      -0.01067014      -0.00045139
C        4.92000000       0.00000000      13.77897279       0.01057017       0.00315560      -0.00045135
C        3.69000000       2.13042000      13.81876687      -0.01375804       0.00274039       0.00088737
C        2.46000000       4.26085000      13.81873469      -0.00244990      -0.01746302       0.00089013
C        1.23000000       6.39127000      13.77892032       0.01023944       0.00330985      -0.00045365
C        0.00000000       8.52169000      13.75914470       0.00232687      -0.00134339      -0.00311007
C        7.38000000       0.00000000      13.77896460      -0.00591154       0.00316820      -0.00045587
C        6.15000000       2.13042000      13.76407956       0.00233542       0.00654193      -0.00405737
C        4.92000000       4.26085000      13.75875981      -0.01134374      -0.00956543      -0.00159188
C        3.69000000       6.39127000      13.76400745       0.00890839      -0.00541134      -0.00405543
C        2.46000000       8.52169000      13.77891859       0.00202069      -0.01065794      -0.00045301
C        9.84000000       0.00000000      13.86771475      -0.09739823      -0.05880562       0.00195028
C        8.61000000       2.13042000      13.81881082       0.01829468       0.00276941       0.00089026
C        7.38000000       4.26085000      13.75880642       0.01600621      -0.00956896      -0.00158964
C        6.15000000       6.39127000      13.75876348       0.00232801       0.01417555      -0.00159173
C        4.92000000       8.52169000      13.81873634       0.01361397       0.01068545       0.00089070
C        0.00006000       1.42025000      13.99540630      -0.00221907       0.00107095      -0.00165294
C       -1.22994000       3.55067000      13.88517131      -0.06370500       0.14628541       0.00325449
C       -2.45994000       5.68109000      13.78162812       0.00948567       0.00147945       0.00271112
C       -3.68994000       7.81151000      13.78161833       0.00350486       0.01196098       0.00271045
C       -4.91994000       9.94194000      13.88514815       0.09258111      -0.12463907       0.00325463
C        2.46006000       1.42025000      13.88514480       0.15406873      -0.01817116       0.00325415
C        1.23006000       3.55067000      13.88512574       0.05919631       0.14634287       0.00323494
C        0.00006000       5.68109000      13.80330185      -0.00230785      -0.02689832       0.00394861
C       -1.22994000       7.81151000      13.76226204      -0.00476129       0.00027747      -0.00210983
C       -2.45994000       9.94194000      13.80333349      -0.02693827       0.01535598       0.00395087
C        4.92006000       1.42025000      13.78160957      -0.00832403      -0.00906832       0.00270939
C        3.69006000       3.55067000      13.79787048       0.01871026       0.01349646       0.00472766
C        2.46006000       5.68109000      13.78154680      -0.01415122       0.00147853       0.00270735
C        1.23006000       7.81151000      13.76221838       0.00009720       0.00027032      -0.00210896
C        0.00006000       9.94194000      13.76225735      -0.00234176       0.00395127      -0.00211014
C        7.38006000       1.42025000      13.78162032       0.00369847      -0.00903566       0.00270953
C        6.15006000       3.55067000      13.75584713      -0.00232855      -0.00249032      -0.00232240
C        4.92006000       5.68109000      13.75580247      -0.00566164       0.00354105      -0.00231648
C        3.69006000       7.81151000      13.78154774      -0.00812136       0.01197956       0.00270682
C        2.46006000       9.94194000      13.80329723       0.02237006       0.01538708       0.00394742
C        9.84006000       1.42025000      13.88516723      -0.15852132      -0.01817529       0.00325417
C        8.61006000       3.55067000      13.79793523      -0.02337752       0.01351824       0.00473029
C        7.38006000       5.68109000      13.75585181       0.00100941       0.00354363      -0.00232094
C        6.15006000       7.81151000      13.79787638      -0.00231426      -0.02261659       0.00472829
C        4.92006000       9.94194000      13.88512501      -0.09711816      -0.12461574       0.00323510
C        0.00000000       0.00000000      10.09081709      -0.00241314      -0.29374112      -0.00340818
C       11.07000000       2.13042000      10.09081858      -0.25784236       0.14920913      -0.00340860
C       -2.46000000       4.26085000      10.18258262      -0.02559148      -0.01885301      -0.00211652
C       -3.69000000       6.39127000      10.22404127       0.01498371       0.01115019       0.00003569
C       -4.92000000       8.52169000      10.18258891      -0.03118030      -0.00882710      -0.00211412
C        2.46000000       0.00000000      10.15145250       0.17487834      -0.10078282      -0.00314191
C        1.23000000       2.13042000      10.09081137       0.25333746       0.14938539      -0.00340859
C        0.00000000       4.26085000      10.15148383      -0.00222898       0.20545316      -0.00313663
C       -1.23000000       6.39127000      10.21918566       0.00932133      -0.00451266      -0.00018879
C       -2.46000000       8.52169000      10.21916947      -0.00137573       0.01427634      -0.00018857
C        4.92000000       0.00000000      10.21916553      -0.01301753      -0.00573665      -0.00018924
C        3.69000000       2.13042000      10.18257990      -0.00790535       0.03176698      -0.00211505
C        2.46000000       4.26085000      10.18260887       0.02095431      -0.01888023      -0.00211282
C        1.23000000       6.39127000      10.21921104      -0.01395465      -0.00451985      -0.00019149
C        0.00000000       8.52169000      10.23688219      -0.00233258       0.00138720       0.00386330
C        7.38000000       0.00000000      10.21918416       0.00840031      -0.00572360      -0.00018915
C        6.15000000       2.13042000      10.22403544      -0.00232984      -0.01831824       0.00003503
C        4.92000000       4.26085000      10.22364221       0.00365347       0.00452234       0.00209733
C        3.69000000       6.39127000      10.22408310      -0.01963773       0.01114280       0.00002743
C        2.46000000       8.52169000      10.21921348      -0.00323211       0.01428677      -0.00019120
C        9.84000000       0.00000000      10.15148873      -0.17927255      -0.10074712      -0.00313604
C        8.61000000       2.13042000      10.18258224       0.00330228       0.03178261      -0.00211647
C        7.38000000       4.26085000      10.22362570      -0.00831022       0.00452634       0.00210197
C        6.15000000       6.39127000      10.22364710      -0.00232484      -0.00575501       0.00209816
C        4.92000000       8.52169000      10.18261752       0.02659417      -0.00879726      -0.00211184
C        1.22994000       0.71018000      10.09068868       0.25059279      -0.14498434      -0.00270061
C       -0.00006000       2.84060000      10.09069845       0.00236938       0.28550057      -0.00269927
C       -1.23006000       4.97102000      10.18347209       0.03487096       0.00624060      -0.00168921
C       -2.46006000       7.10144000      10.22553597      -0.01328221      -0.01009179      -0.00093580
C       -3.69006000       9.23187000      10.18345949       0.02499739       0.02296771      -0.00169317
C        3.68994000       0.71018000      10.18345400      -0.00759821      -0.03354829      -0.00169369
C        2.45994000       2.84060000      10.15037168       0.17158606       0.09646845      -0.00214371
C        1.22994000       4.97102000      10.18349360      -0.03029406       0.00622650      -0.00168700
C       -0.00006000       7.10144000      10.22788436       0.00232213       0.00580569       0.00188569
C       -1.23006000       9.23187000      10.22786080       0.00829370      -0.00503522       0.00188817
C        6.14994000       0.71018000      10.22553115       0.00232809       0.01638604      -0.00093642
C        4.91994000       2.84060000      10.21622737      -0.00958939       0.00375189      -0.00064171
C        3.68994000       4.97102000      10.21625719       0.00079286      -0.01401025      -0.00064441
C        2.45994000       7.10144000      10.22557873       0.01793036      -0.01008734      -0.00093845
C        1.22994000       9.23187000      10.22788429      -0.00363724      -0.00502794       0.00188548
C        8.60994000       0.71018000      10.18347259       0.01219842      -0.03351447      -0.00168904
C        7.37994000       2.84060000      10.21621939       0.01419646       0.00377109      -0.00064249
C        6.14994000       4.97102000      10.23151100       0.00232891      -0.00114864       0.00337066
C        4.91994000       7.10144000      10.21626192       0.01270038       0.00667979      -0.00064366
C        3.68994000       9.23187000      10.18349961      -0.02036852       0.02297800      -0.00168631
C       11.06994000       0.71018000      10.09070273      -0.24607771      -0.14512102      -0.00269886
C        9.83994000       2.84060000      10.15035833      -0.16713566       0.09647993      -0.00214583
C        8.60994000       4.97102000      10.21622222       0.00382402      -0.01399516      -0.00064227
C        7.37994000       7.10144000      10.21623494      -0.00805546       0.00668420      -0.00064073
C        6.14994000       9.23187000      10.15038159       0.00223885      -0.19707436      -0.00214269
Li       0.00002892       1.42027402      11.88038608      -0.00000167       0.00000156       0.00371874
