109
Lattice="12.782400131 0.0 0.0 -6.391200066 11.069883235 0.0 0.0 0.0 24.0" Properties=species:S:1:pos:R:3:forces:R:3 energy=-1005.3858283427821 free_energy=-1005.3858283427821 stress="-0.06718144041542229 3.1492396743823274e-06 -3.295369425768501e-08 3.1492396743823274e-06 -0.06718532737868164 -1.1568413973413161e-07 -3.295369425768501e-08 -1.1568413973413161e-07 -8.010185756605969e-05" pbc="T T T"
C        0.00000000       0.00000000      13.95327701      -0.14962723      -0.25947006       0.00363379
C       -2.13038000       3.68992000      13.82576273       0.00763998      -0.00561533      -0.00021155
C        8.52158000       7.37996000      13.77302035      -0.00428236      -0.00439746      -0.00096145
C        4.26076000       0.00000000      13.82573740      -0.01058353       0.00256190      -0.00021362
C        2.13038000       3.68992000      13.87719052       0.06362760       0.11186520       0.00682616
C       -0.00006000       7.37996000      13.74725638      -0.00037905      -0.00823029      -0.00358379
C        8.52164000       0.00000000      13.77300843      -0.00123538      -0.00552044      -0.00095893
C        6.39126000       3.68992000      13.74726829      -0.00640670      -0.00175520      -0.00358165
C        4.26082000       7.37996000      13.76138496       0.00932510       0.01584518       0.00769519
C        0.00000000       2.45995000      13.95323449      -0.14946978       0.25889727       0.00362432
C       -2.13044000       6.14998000      13.76134590       0.01007606      -0.01724892       0.00769581
C       -4.26082000       9.83991000      13.87724111       0.06310275      -0.10944384       0.00683895
C        4.26076000       2.45995000      13.82573438      -0.00883909      -0.00224136      -0.00021062
C        2.13031000       6.14998000      13.77301110      -0.00123913       0.00387207      -0.00096366
C       -0.00006000       9.83991000      13.74724372      -0.00479459       0.00440404      -0.00357552
C        8.52164000       2.45995000      13.77300483      -0.00070827       0.00461123      -0.00095912
C        6.39120000       6.14998000      13.74729329       0.00068482       0.00729101      -0.00356559
C        4.26082000       9.83991000      13.82580302       0.00756566       0.00760778      -0.00019732
C        2.13038000       1.22997000      13.95322099       0.29946518       0.00030597       0.00362055
C        0.00000000       4.91990000      13.82574606       0.00149359      -0.00760133      -0.00021940
C       -2.13044000       8.60993000      13.77299576       0.00483506       0.00188019      -0.00096912
C        6.39126000       1.22997000      13.76133439      -0.02309362       0.00030817       0.00768700
C        4.26089000       4.91990000      13.77303263      -0.00052725       0.00116116      -0.00097468
C        2.13044000       8.60993000      13.74726975       0.00330367       0.00386048      -0.00357823
C       10.65202000       1.22997000      13.87724817      -0.12615535       0.00028733       0.00682825
C        8.52164000       4.91990000      13.74726691       0.00507478      -0.00093042      -0.00358363
C        6.39120000       8.60993000      13.82581245       0.00330725       0.01039997      -0.00020229
C       11.36215000       2.45995000      13.89731962      -0.15131400       0.06770532       0.00012012
C       -3.55070000       6.14998000      13.75225572      -0.00544339       0.00476834       0.00730765
C       -5.68107000       9.83991000      13.89735263       0.01734159      -0.16480649       0.00012523
C        2.84050000       2.45995000      13.89727342       0.13482462       0.09836850       0.00012278
C        0.71006000       6.14998000      13.77727429       0.00449739      -0.01359491      -0.00328147
C       -1.42032000       9.83991000      13.77725698      -0.01178221       0.00231147      -0.00328385
C        7.10139000       2.45995000      13.75224566       0.00833508       0.00162314       0.00730711
C        4.97095000       6.14998000      13.75229198      -0.00372352      -0.01033291       0.00730805
C        2.84057000       9.83991000      13.77729301       0.00764831       0.00928952      -0.00327608
C        0.71013000       1.22997000      14.00738631      -0.00013860       0.00034814       0.00772391
C       -1.42032000       4.92001000      13.80350505      -0.00977813       0.01712047       0.00027778
C       -3.55070000       8.60993000      13.80524756      -0.01666513       0.02980616       0.00009658
C        4.97088000       1.22997000      13.80347167       0.02711470       0.00028801       0.00026654
C        2.84044000       4.92001000      13.80523860      -0.01173174      -0.03273624       0.00008950
C        0.71006000       8.60993000      13.73780932       0.00367741       0.00010395       0.00648687
C        9.23177000       1.22997000      13.80524869       0.03399707       0.00027637       0.00009375
C        7.10133000       4.92001000      13.73783147       0.00123544      -0.00326123       0.00649097
C        4.97095000       8.60993000      13.80355259      -0.01198594      -0.02024458       0.00027402
C        2.84050000       0.00000000      13.89730139       0.13414657      -0.09747705       0.00012206
C        0.71013000       3.68992000      13.89728432       0.01672179       0.16545696       0.00012358
C       -1.42032000       7.37996000      13.75224136      -0.00292844       0.00834355       0.00731145
C        7.10139000       0.00000000      13.75223856       0.00653010      -0.00206738       0.00730624
C        4.97101000       3.68992000      13.77728484      -0.01492689      -0.00225986      -0.00328277
C        2.84057000       7.37996000      13.75227141      -0.00770667      -0.00732559       0.00731145
C       11.36215000       0.00000000      13.89735213      -0.15158572      -0.06720234       0.00012183
C        9.23177000       3.68992000      13.77727729       0.00743180      -0.00918281      -0.00327862
C        7.10133000       7.37996000      13.77731086       0.00405002       0.01196536      -0.00327507
C        0.00000000       0.00000000      10.08094944      -0.14814811      -0.25645352      -0.00432795
C       -2.13038000       3.68992000      10.17974542       0.01896855       0.02921345       0.00161807
C        8.52158000       7.37996000      10.22103201       0.00319449       0.01107186      -0.00262235
C        4.26076000       0.00000000      10.17975342       0.01538129       0.03049944       0.00162016
C        2.13038000       3.68992000      10.14355204       0.10433381       0.18103072      -0.00053906
C       -0.00006000       7.37996000      10.23893296       0.00903420       0.00424243       0.00080856
C        8.52164000       0.00000000      10.22101289       0.00987509       0.00940042      -0.00262831
C        6.39126000       3.68992000      10.23891619       0.00122120       0.01174130       0.00080466
C        4.26082000       7.37996000      10.22960368      -0.00338981      -0.00753662      -0.00742425
C        0.00000000       2.45995000      10.08095924      -0.14815962       0.25631340      -0.00432766
C       -2.13044000       6.14998000      10.22963087      -0.00127633       0.00212314      -0.00742512
C       -4.26082000       9.83991000      10.14354560       0.10377791      -0.18004303      -0.00054017
C        4.26076000       2.45995000      10.17975233       0.01840035      -0.03048404       0.00161817
C        2.13031000       6.14998000      10.22101293       0.00902707      -0.01622887      -0.00261922
C       -0.00006000       9.83991000      10.23893099       0.00434563      -0.01135003       0.00080566
C        8.52164000       2.45995000      10.22101337       0.00996314      -0.00982150      -0.00262566
C        6.39120000       6.14998000      10.23891984       0.01080367      -0.00907022       0.00080667
C        4.26082000       9.83991000      10.17972792       0.01866830      -0.02850957       0.00161622
C        2.13038000       1.22997000      10.08097003       0.29583354       0.00037539      -0.00432521
C        0.00000000       4.91990000      10.17975335      -0.03462005      -0.00176527       0.00162117
C       -2.13044000       8.60993000      10.22103583      -0.01358732       0.00424312      -0.00262490
C        6.39126000       1.22997000      10.22960930       0.00394967      -0.00045285      -0.00742667
C        4.26089000       4.91990000      10.22100813      -0.01605898      -0.00403890      -0.00262318
C        2.13044000       8.60993000      10.23891972      -0.01176672       0.00454719       0.00080643
C       10.65202000       1.22997000      10.14352358      -0.20763527       0.00022708      -0.00054192
C        8.52164000       4.91990000      10.23892966      -0.01031534      -0.00453000       0.00080766
C        6.39120000       8.60993000      10.17973485      -0.03407441       0.00253972       0.00162044
C       -0.71013000       1.22997000      10.08072792      -0.28640197       0.00020550      -0.00530087
C       -2.84050000       4.91990000      10.22106994       0.01509750      -0.00514458      -0.00298773
C       -4.97095000       8.60993000      10.17951060       0.03420994       0.00679580       0.00152136
C        3.55063000       1.22997000      10.14348797       0.19847871       0.00048380      -0.00025657
C        1.42025000       4.91990000      10.17951493       0.03492055      -0.00516386       0.00151994
C       -0.71019000       8.60993000      10.23873586       0.01011109       0.00364768       0.00087752
C        7.81152000       1.22997000      10.22917388      -0.00777005      -0.00007727      -0.00597876
C        5.68114000       4.91990000      10.23871351       0.00972520      -0.00217309       0.00087607
C        3.55070000       8.60993000      10.22104897       0.01414037       0.00633479      -0.00298987
C        1.42025000       0.00000000      10.08074236       0.14349873      -0.24829092      -0.00530073
C       -0.71013000       3.68992000      10.14347856      -0.09870333       0.17141022      -0.00025954
C       -2.84057000       7.37996000      10.22919841       0.00421439      -0.00664580      -0.00597621
C        5.68101000       0.00000000      10.22106517      -0.01167537       0.01008945      -0.00298676
C        3.55063000       3.68992000      10.17951435      -0.02131771       0.02658584       0.00151802
C        1.42019000       7.37996000      10.23872074      -0.00582904       0.00669836       0.00087980
C        9.94190000       0.00000000      10.17949227      -0.01110758       0.03316841       0.00151880
C        7.81152000       3.68992000      10.23872134      -0.00173789       0.01024831       0.00087917
C        5.68107000       7.37996000      10.22105136      -0.00057211       0.01589463      -0.00298780
C        1.42025000       2.45995000      10.08074989       0.14354544       0.24810651      -0.00529850
C       -0.71013000       6.14987000      10.22107426      -0.00264007      -0.01341587      -0.00298467
C       -2.84057000       9.83991000      10.17951949      -0.02323779      -0.02625427       0.00152120
C        5.68114000       2.45995000      10.22104769      -0.01736748      -0.00964899      -0.00298563
C        3.55076000       6.14987000      10.22916607      -0.00183948       0.00922619      -0.00597269
C        1.42032000       9.83991000      10.23872209      -0.00517899      -0.01070686       0.00087914
C        9.94190000       2.45995000      10.17949926      -0.01124906      -0.03350803       0.00152122
C        7.81152000       6.14987000      10.23872643      -0.01025378      -0.00339427       0.00088451
C        5.68107000       9.83991000      10.14345991      -0.09880342      -0.17173945      -0.00025359
Li       0.71009013       1.22996162      11.88142946      -0.00000437      -0.00000463       0.00354147
