109
Lattice="12.782400131 0.0 0.0 -6.391200066 11.069883235 0.0 0.0 0.0 24.0" Properties=species:S:1:pos:R:3:forces:R:3 energy=-1005.377195880062 free_energy=-1005.377195880062 stress="-0.06815479152791093 3.1367090214877758e-06 6.153840629609161e-18 3.1367090214877758e-06 -0.06815861513423885 4.0396692020476086e-18 6.153840629609161e-18 4.0396692020476086e-18 -3.1861897282420184e-05" pbc="T T T"
C        0.00000000       0.00000000      13.87504813      -0.09244108      -0.16042579       0.00721947
C       -2.13038000       3.68992000      13.87347475      -0.00613707      -0.01970358       0.00858819
C        8.52158000       7.37996000      13.87443997      -0.00874958      -0.01240842      -0.00299280
C        4.26076000       0.00000000      13.87347429      -0.01585438      -0.01640705       0.00858096
C        2.13038000       3.68992000      13.88748784       0.10367279       0.18113140       0.00245566
C       -0.00006000       7.37996000      13.87397472      -0.00776605      -0.00282116      -0.00718935
C        8.52164000       0.00000000      13.87444009      -0.00594701      -0.01339780      -0.00299271
C        6.39126000       3.68992000      13.87397574       0.00196819      -0.00547085      -0.00719322
C        4.26082000       7.37996000      13.87429118       0.00400203       0.00662175      -0.00169995
C        0.00000000       2.45995000      13.88747699      -0.20603077      -0.00045202       0.00248581
C       -2.13044000       6.14998000      13.87397432       0.00586903       0.00519586      -0.00718535
C       -4.26082000       9.83991000      13.87347267       0.02224857       0.00524672       0.00856962
C        4.26076000       2.45995000      13.87505583       0.18684045       0.00018562       0.00720877
C        2.13031000       6.14998000      13.87347727       0.02499034      -0.00504126       0.00859650
C       -0.00006000       9.83991000      13.87444135       0.01589228       0.00211300      -0.00299025
C        8.52164000       2.45995000      13.87429015      -0.00874442      -0.00058566      -0.00168241
C        6.39120000       6.14998000      13.87444114       0.01496267      -0.00188815      -0.00300216
C        4.26082000       9.83991000      13.87397477       0.00588521      -0.00569922      -0.00720324
C        2.13038000       1.22997000      13.88747074       0.10316125      -0.17834049       0.00250706
C        0.00000000       4.91990000      13.87505976      -0.09422618       0.16305667       0.00720101
C       -2.13044000       8.60993000      13.87428989       0.00435601      -0.00768061      -0.00168517
C        6.39126000       1.22997000      13.87397504      -0.00151350       0.00788634      -0.00718529
C        4.26089000       4.91990000      13.87347548      -0.02124088       0.01938995       0.00860502
C        2.13044000       8.60993000      13.87444149      -0.01176953       0.01162638      -0.00300013
C       10.65202000       1.22997000      13.87347263      -0.00640343       0.02224258       0.00857922
C        8.52164000       4.91990000      13.87444142      -0.00724173       0.01583278      -0.00299007
C        6.39120000       8.60993000      13.87397446      -0.00736516       0.00228812      -0.00720268
C       11.36215000       2.45995000      13.87505349      -0.18502834       0.00055838       0.00720704
C       -3.55070000       6.14998000      13.87444080      -0.01412888      -0.00357250      -0.00299816
C       -5.68107000       9.83991000      13.87347264      -0.02248085       0.00527509       0.00856204
C        2.84050000       2.45995000      13.88748064       0.20724533       0.00080811       0.00247707
C        0.71006000       6.14998000      13.87347579      -0.02208979      -0.00711445       0.00860100
C       -1.42032000       9.83991000      13.87397543      -0.00493988      -0.00526485      -0.00720002
C        7.10139000       2.45995000      13.87429133       0.00876356       0.00025277      -0.00169135
C        4.97095000       6.14998000      13.87397476      -0.00625302       0.00321760      -0.00718276
C        2.84057000       9.83991000      13.87444040      -0.01466236       0.00117730      -0.00298564
C        0.71013000       1.22997000      13.88746839      -0.10332790      -0.17833693       0.00250423
C       -1.42032000       4.92001000      13.87347467       0.01776699       0.01337152       0.00859337
C       -3.55070000       8.60993000      13.87397403       0.00794478       0.00231309      -0.00719547
C        4.97088000       1.22997000      13.87347529       0.00999975       0.02228526       0.00857539
C        2.84044000       4.92001000      13.87506023       0.09785871       0.15740931       0.00720442
C        0.71006000       8.60993000      13.87444113       0.01212223       0.01158317      -0.00299161
C        9.23177000       1.22997000      13.87397383      -0.00212232       0.00785739      -0.00719574
C        7.10133000       4.92001000      13.87444136       0.00692870       0.00983573      -0.00299020
C        4.97095000       8.60993000      13.87428951      -0.00474390      -0.00769971      -0.00167662
C        2.84050000       0.00000000      13.87505072       0.09285212      -0.16025632       0.00720578
C        0.71013000       3.68992000      13.88748944      -0.10395181       0.17942431       0.00245264
C       -1.42032000       7.37996000      13.87429017      -0.00433336       0.00802964      -0.00169172
C        7.10139000       0.00000000      13.87444119       0.00365585      -0.01376712      -0.00299631
C        4.97101000       3.68992000      13.87347532       0.00396352      -0.02205048       0.00859543
C        2.84057000       7.37996000      13.87397509       0.00529327      -0.00273790      -0.00718492
C       11.36215000       0.00000000      13.87347293       0.01562711      -0.01663257       0.00856306
C        9.23177000       3.68992000      13.87397572      -0.00255351      -0.00704758      -0.00720209
C        7.10133000       7.37996000      13.87443983       0.00817410      -0.01141142      -0.00298554
C        0.00000000       0.00000000      10.12495187      -0.09244108      -0.16042579      -0.00721947
C       -2.13038000       3.68992000      10.12652525      -0.00613707      -0.01970358      -0.00858819
C        8.52158000       7.37996000      10.12556003      -0.00874958      -0.01240842       0.00299280
C        4.26076000       0.00000000      10.12652571      -0.01585438      -0.01640705      -0.00858096
C        2.13038000       3.68992000      10.11251216       0.10367279       0.18113140      -0.00245566
C       -0.00006000       7.37996000      10.12602528      -0.00776605      -0.00282116       0.00718935
C        8.52164000       0.00000000      10.12555991      -0.00594701      -0.01339780       0.00299271
C        6.39126000       3.68992000      10.12602426       0.00196819      -0.00547085       0.00719322
C        4.26082000       7.37996000      10.12570882       0.00400203       0.00662175       0.00169995
C        0.00000000       2.45995000      10.11252301      -0.20603077      -0.00045202      -0.00248581
C       -2.13044000       6.14998000      10.12602568       0.00586903       0.00519586       0.00718535
C       -4.26082000       9.83991000      10.12652733       0.02224857       0.00524672      -0.00856962
C        4.26076000       2.45995000      10.12494417       0.18684045       0.00018562      -0.00720877
C        2.13031000       6.14998000      10.12652273       0.02499034      -0.00504126      -0.00859650
C       -0.00006000       9.83991000      10.12555865       0.01589228       0.00211300       0.00299025
C        8.52164000       2.45995000      10.12570985      -0.00874442      -0.00058566       0.00168241
C        6.39120000       6.14998000      10.12555886       0.01496267      -0.00188815       0.00300216
C        4.26082000       9.83991000      10.12602523       0.00588521      -0.00569922       0.00720324
C        2.13038000       1.22997000      10.11252926       0.10316125      -0.17834049      -0.00250706
C        0.00000000       4.91990000      10.12494024      -0.09422618       0.16305667      -0.00720101
C       -2.13044000       8.60993000      10.12571011       0.00435601      -0.00768061       0.00168517
C        6.39126000       1.22997000      10.12602496      -0.00151350       0.00788634       0.00718529
C        4.26089000       4.91990000      10.12652452      -0.02124088       0.01938995      -0.00860502
C        2.13044000       8.60993000      10.12555851      -0.01176953       0.01162638       0.00300013
C       10.65202000       1.22997000      10.12652737      -0.00640343       0.02224258      -0.00857922
C        8.52164000       4.91990000      10.12555858      -0.00724173       0.01583278       0.00299007
C        6.39120000       8.60993000      10.12602554      -0.00736516       0.00228812       0.00720268
C       11.36215000       2.45995000      10.12494651      -0.18502834       0.00055838      -0.00720704
C       -3.55070000       6.14998000      10.12555920      -0.01412888      -0.00357250       0.00299816
C       -5.68107000       9.83991000      10.12652736      -0.02248085       0.00527509      -0.00856204
C        2.84050000       2.45995000      10.11251936       0.20724533       0.00080811      -0.00247707
C        0.71006000       6.14998000      10.12652421      -0.02208979      -0.00711445      -0.00860100
C       -1.42032000       9.83991000      10.12602457      -0.00493988      -0.00526485       0.00720002
C        7.10139000       2.45995000      10.12570867       0.00876356       0.00025277       0.00169135
C        4.97095000       6.14998000      10.12602524      -0.00625302       0.00321760       0.00718276
C        2.84057000       9.83991000      10.12555960      -0.01466236       0.00117730       0.00298564
C        0.71013000       1.22997000      10.11253161      -0.10332790      -0.17833693      -0.00250423
C       -1.42032000       4.92001000      10.12652533       0.01776699       0.01337152      -0.00859337
C       -3.55070000       8.60993000      10.12602597       0.00794478       0.00231309       0.00719547
C        4.97088000       1.22997000      10.12652471       0.00999975       0.02228526      -0.00857539
C        2.84044000       4.92001000      10.12493977       0.09785871       0.15740931      -0.00720442
C        0.71006000       8.60993000      10.12555887       0.01212223       0.01158317       0.00299161
C        9.23177000       1.22997000      10.12602617      -0.00212232       0.00785739       0.00719574
C        7.10133000       4.92001000      10.12555864       0.00692870       0.00983573       0.00299020
C        4.97095000       8.60993000      10.12571049      -0.00474390      -0.00769971       0.00167662
C        2.84050000       0.00000000      10.12494928       0.09285212      -0.16025632      -0.00720578
C        0.71013000       3.68992000      10.11251056      -0.10395181       0.17942431      -0.00245264
C       -1.42032000       7.37996000      10.12570983      -0.00433336       0.00802964       0.00169172
C        7.10139000       0.00000000      10.12555881       0.00365585      -0.01376712       0.00299631
C        4.97101000       3.68992000      10.12652468       0.00396352      -0.02205048      -0.00859543
C        2.84057000       7.37996000      10.12602491       0.00529327      -0.00273790       0.00718492
C       11.36215000       0.00000000      10.12652707       0.01562711      -0.01663257      -0.00856306
C        9.23177000       3.68992000      10.12602428      -0.00255351      -0.00704758       0.00720209
C        7.10133000       7.37996000      10.12556017       0.00817410      -0.01141142       0.00298554
Li       1.42025032       2.45996107      12.00000000       0.00000377      -0.00000388       0.00000000
