113
Lattice="13.017000198 0.0 0.0 -6.508500099 11.273052853 0.0 0.0 0.0 24.0" Properties=species:S:1:pos:R:3:forces:R:3 energy=-1042.5554186049899 free_energy=-1042.5554186049899 stress="-0.067117552852379 3.11238953865402e-06 -6.046237315109114e-08 3.11238953865402e-06 -0.06711913332342942 4.6763156898114616e-08 -6.046237315109114e-08 4.6763156898114616e-08 -8.471081147681971e-05" pbc="T T T"
C        0.00000000       0.00000000      13.95467903      -0.09738555      -0.28413676       0.00101504
C        9.76275000       5.63653000      13.75966710       0.00816009      -0.01540778      -0.00260407
C        6.50850000       0.00000000      13.75364292      -0.00881369       0.00127292       0.00475639
C        3.25425000       5.63653000      13.77556250       0.00553996      -0.00239140      -0.00035755
C       -0.46484000       2.41559000      13.95462733      -0.19834047       0.22840085       0.00098040
C       -3.71909000       8.05212000      13.77561065      -0.00551163      -0.00195246      -0.00037049
C        6.04366000       2.41559000      13.75957594      -0.01812124       0.00272653      -0.00258518
C        2.78941000       8.05212000      13.75371932       0.00453059       0.00878032       0.00476113
C       -0.92974000       4.83129000      13.82762712       0.00309311      -0.01013485       0.00162706
C       -4.18399000      10.46782000      13.87905077       0.08280580      -0.09540998       0.00374083
C        5.57876000       4.83129000      13.74373083      -0.00813703      -0.00769243       0.00426623
C        2.32451000      10.46782000      13.77404901      -0.00562363      -0.00484729      -0.00352771
C        1.85967000       1.61036000      13.95469250       0.29112970       0.06010058       0.00102988
C       -1.39458000       7.24688000      13.75374428      -0.00040431      -0.00538078       0.00476910
C        8.36817000       1.61036000      13.77541392      -0.00467461       0.00829778      -0.00042624
C        5.11392000       7.24688000      13.75970899       0.00531218       0.01745901      -0.00258525
C        1.39464000       4.02606000      13.87902349       0.04624433       0.11870402       0.00374429
C       -1.85961000       9.66258000      13.77412094       0.01186654      -0.00305777      -0.00351115
C        7.90314000       4.02606000      13.74368370       0.01588694      -0.00373220       0.00429238
C        4.64889000       9.66258000      13.82763710       0.01222732       0.00735103       0.00161224
C        4.18412000       0.80523000      13.82760570      -0.01358538       0.00041762       0.00161274
C        0.92987000       6.44176000      13.77414713      -0.00445035       0.00517618      -0.00351982
C       10.69262000       0.80523000      13.87891650      -0.12705800      -0.02598000       0.00376190
C        7.43837000       6.44176000      13.74377889      -0.00595152       0.00885246       0.00431303
C        3.71915000       3.22082000      13.82598363      -0.00707370      -0.00360691       0.00038819
C        0.46490000       8.85735000      13.73829803       0.00321789       0.00089165       0.00679009
C       10.22765000       3.22082000      13.82593627       0.01222665      -0.00534835       0.00039667
C        6.97340000       8.85735000      13.82609385       0.00423626       0.01198363       0.00041442
C       -2.32445000       4.56288000      13.80411723      -0.01657329       0.02037304       0.00290202
C       -5.57870000      10.19941000      13.89838168       0.04877656      -0.15785247       0.00449670
C        4.18405000       4.56288000      13.77819708      -0.00848148      -0.00516470      -0.00212286
C        0.92980000      10.19941000      13.74558582       0.00698098       0.00442712       0.00122833
C        0.46490000       1.34206000      14.00884191       0.00277365      -0.00341329       0.00473738
C       -2.78935000       6.97858000      13.75612735       0.00086863       0.00594116      -0.00021360
C        6.97340000       1.34206000      13.75598622       0.01170989      -0.00622468      -0.00022946
C        3.71915000       6.97858000      13.75612260      -0.00384452      -0.00935841      -0.00023753
C        0.00007000       3.75765000      13.89872699      -0.01739251       0.16372734       0.00334203
C       -3.25418000       9.39417000      13.80686406      -0.02364460       0.02538139       0.00304587
C        6.50857000       3.75765000      13.74240452      -0.00015568      -0.00038443       0.00133392
C        3.25432000       9.39417000      13.77983719       0.00222910       0.01403467      -0.00086928
C        2.78941000       0.53682000      13.89874880       0.14948737      -0.07255838       0.00332571
C       -0.46484000       6.17335000      13.77989438       0.00978831      -0.01499416      -0.00087335
C        9.29791000       0.53682000      13.80670303       0.03254801       0.00203574       0.00301393
C        6.04366000       6.17335000      13.74248747      -0.00116028      -0.00589929       0.00135918
C        2.32458000       2.95241000      13.89834134       0.10810063       0.12216419       0.00447378
C       -0.92967000       8.58894000      13.74565490      -0.01161171       0.00440849       0.00121814
C        8.83308000       2.95241000      13.77809810       0.00451949      -0.00365452      -0.00214179
C        5.57883000       8.58894000      13.80419823      -0.01355762      -0.02386103       0.00292535
C        1.85954000       5.36812000      13.80684050      -0.00916080      -0.03193506       0.00301454
C       -1.39471000      11.00464000      13.77982665      -0.01232132      -0.00365874      -0.00088559
C        8.36804000       5.36812000      13.74245744       0.00107276       0.00103889       0.00134955
C        5.11379000      11.00464000      13.89871327      -0.13232856      -0.09562994       0.00331230
C        4.64896000       2.14718000      13.80408615       0.02716962       0.00819894       0.00291198
C        1.39471000       7.78370000      13.74564206       0.00165801      -0.00368329       0.00124278
C       11.15746000       2.14718000      13.89824712      -0.15969164       0.04071967       0.00447432
C        7.90321000       7.78370000      13.77829347       0.00091388       0.01449895      -0.00214974
C        0.00000000       0.00000000      10.08024341      -0.09419347      -0.28277278      -0.00371477
C        9.76275000       5.63653000      10.22905208      -0.00276505       0.00217028      -0.00043650
C        6.50850000       0.00000000      10.23704566       0.00294274      -0.01438251      -0.00475380
C        3.25425000       5.63653000      10.21881527      -0.01131889      -0.00768935       0.00077410
C       -0.46484000       2.41559000      10.08021561      -0.19508363       0.22569820      -0.00370810
C       -3.71909000       8.05212000      10.21882433       0.00338352       0.01370710       0.00078179
C        6.04366000       2.41559000      10.22906968       0.00790234       0.00169233      -0.00044523
C        2.78941000       8.05212000      10.23704210      -0.00970418       0.00489542      -0.00475094
C       -0.92974000       4.83129000      10.17903129      -0.03252633      -0.00709018       0.00080584
C       -4.18399000      10.46782000      10.14326841       0.13619468      -0.15618871      -0.00263994
C        5.57876000       4.83129000      10.23862653      -0.00212716       0.00729517      -0.00259088
C        2.32451000      10.46782000      10.22268179       0.00538683       0.01045195       0.00004050
C        1.85967000       1.61036000      10.08022251       0.29005127       0.05802838      -0.00371829
C       -1.39458000       7.24688000      10.23702708       0.00883939       0.00880990      -0.00474947
C        8.36817000       1.61036000      10.21882681       0.01025943      -0.00722016       0.00076855
C        5.11392000       7.24688000      10.22908707      -0.00282240      -0.00478100      -0.00042963
C        1.39464000       4.02606000      10.14324489       0.07025531       0.19624150      -0.00266100
C       -1.85961000       9.66258000      10.22267483      -0.00868766      -0.00010793       0.00004774
C        7.90314000       4.02606000      10.23861546      -0.00193902      -0.00528271      -0.00258055
C        4.64889000       9.66258000      10.17907647       0.02739480      -0.02313639       0.00082005
C        4.18412000       0.80523000      10.17905683       0.00790508       0.02895169       0.00080262
C        0.92987000       6.44176000      10.22265326       0.00605227      -0.01425474       0.00005328
C       10.69262000       0.80523000      10.14326997      -0.20372640      -0.04382079      -0.00265717
C        7.43837000       6.44176000      10.23863623       0.00694260      -0.00585747      -0.00257738
C        3.71915000       3.22082000      10.17872840       0.02266869      -0.02510355      -0.00205765
C        0.46490000       8.85735000      10.24936644       0.00079803       0.00161088      -0.00007304
C       10.22765000       3.22082000      10.17871884       0.01220197       0.03477508      -0.00207411
C        6.97340000       8.85735000      10.17875480      -0.03346877      -0.00368023      -0.00206120
C       -1.39471000       3.48935000      10.14283096      -0.12516581       0.14369675      -0.00248668
C       -4.64889000       9.12576000      10.17846987       0.03258094       0.01487486       0.00000503
C        5.11386000       3.48924000      10.22066649      -0.00783508      -0.01132995      -0.00048926
C        1.85961000       9.12576000      10.24111287       0.00211353      -0.00551183      -0.00258491
C        1.39471000       0.26841000      10.07998913       0.18787312      -0.21891792      -0.00315263
C       -1.85954000       5.90494000      10.21910485       0.00058469      -0.01787879       0.00085420
C        7.90321000       0.26841000      10.22998113      -0.00863388      -0.00436197       0.00088561
C        4.64896000       5.90494000      10.23511942       0.00970165      -0.00617709      -0.00370064
C        0.92987000       2.68400000      10.07996177       0.09125947       0.27053047      -0.00315443
C       -2.32438000       8.32053000      10.22996918       0.00448842      -0.00733601       0.00090425
C        7.43837000       2.68400000      10.23511031      -0.00343473       0.00958458      -0.00371691
C        4.18412000       8.32053000      10.21914556       0.01205575       0.00771744       0.00084588
C        0.46497000       5.09970000      10.17960712       0.03323404       0.00087707      -0.00248925
C       -2.78928000      10.73623000      10.17962357      -0.02111382      -0.03077809      -0.00249161
C        6.97347000       5.09970000      10.24626564      -0.00327115       0.00092403      -0.00091193
C        3.71922000      10.73623000      10.17964622      -0.02141290       0.03174019      -0.00249354
C        3.25438000       1.87877000      10.14285299       0.19112968       0.03887344      -0.00247972
C        0.00013000       7.51529000      10.24110401      -0.00896861       0.00365191      -0.00260041
C        9.76288000       1.87877000      10.17846247      -0.00627424      -0.03356553      -0.00000703
C        6.50863000       7.51529000      10.22068743      -0.00861198       0.01499454      -0.00047938
C        2.78935000       4.29447000      10.17844728      -0.02766397       0.01995968      -0.00001016
C       -0.46490000       9.93100000      10.24111642       0.00518615       0.00344692      -0.00259859
C        9.29785000       4.29447000      10.22065140       0.01413519      -0.00218223      -0.00048759
C        6.04360000       9.93100000      10.14288946      -0.06394356      -0.18765569      -0.00246575
C        5.57876000       1.07353000      10.21913252      -0.01367413       0.01154960       0.00084872
C        2.32451000       6.71006000      10.22996698       0.00323360       0.01249043       0.00089898
C       12.08726000       1.07353000      10.07997521      -0.28109776      -0.04953690      -0.00315865
C        8.83301000       6.71006000      10.23511438      -0.00731291      -0.00265421      -0.00370607
Li       0.46493364       1.34212318      11.88136634       0.00000319       0.00000209       0.00543845
