113
Lattice="13.017000198 0.0 0.0 -6.508500099 11.273052853 0.0 0.0 0.0 24.0" Properties=species:S:1:pos:R:3:forces:R:3 energy=-1042.5422367402282 free_energy=-1042.5422367402282 stress="-0.0680909547783291 2.0737638309076973e-06 6.231139498107901e-18 2.0737638309076973e-06 -0.06808741281400416 -2.0507232899519403e-18 6.231139498107901e-18 -2.0507232899519403e-18 -3.103915267281869e-05" pbc="T T T"
C        0.00000000       0.00000000      13.87506532      -0.06062321      -0.17593362       0.00710032
C        9.76275000       5.63653000      13.87401152       0.00312028       0.00679179      -0.00604947
C        6.50850000       0.00000000      13.87460896       0.00949264       0.00274886      -0.00586081
C        3.25425000       5.63653000      13.87347588      -0.01883627       0.01216206       0.00816622
C       -0.46484000       2.41559000      13.88752020      -0.20408689      -0.03634967       0.00240817
C       -3.71909000       8.05212000      13.87438181      -0.00705051      -0.00884324      -0.00112405
C        6.04366000       2.41559000      13.87394186      -0.00118353       0.01045432      -0.00673502
C        2.78941000       8.05212000      13.87440912       0.00044450       0.01136383      -0.00363214
C       -0.92974000       4.83129000      13.87506138      -0.12175288       0.14005772       0.00709951
C       -4.18399000      10.46782000      13.87347528       0.02059112       0.00944019       0.00817668
C        5.57876000       4.83129000      13.87401134       0.00488689      -0.00663447      -0.00605752
C        2.32451000      10.46782000      13.87460834      -0.00202145      -0.01027505      -0.00585757
C        1.85967000       1.61036000      13.88752555       0.13203807      -0.15315255       0.00239451
C       -1.39458000       7.24688000      13.87394300      -0.01003912      -0.00028170      -0.00672991
C        8.36817000       1.61036000      13.87440992      -0.01207185       0.00011343      -0.00362697
C        5.11392000       7.24688000      13.87438279       0.00919509       0.00410627      -0.00112842
C        1.39464000       4.02606000      13.88752243       0.07287365       0.19389995       0.00241041
C       -1.85961000       9.66258000      13.87441039       0.01222570      -0.00717471      -0.00362989
C        7.90314000       4.02606000      13.87438325      -0.00143574       0.00924544      -0.00112903
C        4.64889000       9.66258000      13.87394248       0.01187684      -0.00508009      -0.00672071
C        4.18412000       0.80523000      13.87343285      -0.01568807      -0.02080616       0.00912185
C        0.92987000       6.44176000      13.87343245       0.01994342      -0.00298861       0.00911791
C       10.69262000       0.80523000      13.87343416      -0.01344138       0.01915794       0.00912538
C        7.43837000       6.44176000      13.87446892      -0.00315810      -0.00165544       0.00439105
C        3.71915000       3.22082000      13.87505935       0.18489720       0.03606543       0.00710630
C        0.46490000       8.85735000      13.87460792      -0.00458378       0.00730807      -0.00585863
C       10.22765000       3.22082000      13.87347420       0.00105834      -0.02189361       0.00817903
C        6.97340000       8.85735000      13.87401034      -0.00517268      -0.00043220      -0.00604159
C       -2.32445000       4.56288000      13.87343443       0.01344503       0.02022060       0.00910969
C       -5.57870000      10.19941000      13.87343654      -0.02222921       0.00210596       0.00911109
C        4.18405000       4.56288000      13.87343343       0.01112856      -0.01972148       0.00911470
C        0.92980000      10.19941000      13.87447120       0.00085051       0.00077648       0.00438797
C        0.46490000       1.34206000      13.88752665      -0.06461902      -0.19824128       0.00238322
C       -2.78935000       6.97858000      13.87441054      -0.00404338       0.00337311      -0.00363240
C        6.97340000       1.34206000      13.87438244       0.00967254      -0.01363278      -0.00111955
C        3.71915000       6.97858000      13.87394246      -0.00367562       0.00128581      -0.00672965
C        0.00007000       3.75765000      13.88752159      -0.13845000       0.15554916       0.00239792
C       -3.25418000       9.39417000      13.87394247       0.00349161       0.00364539      -0.00673559
C        6.50857000       3.75765000      13.87441031       0.00557318       0.00255391      -0.00362853
C        3.25432000       9.39417000      13.87438233      -0.01576962      -0.00070831      -0.00112217
C        2.78941000       0.53682000      13.87506160       0.12182524      -0.14265203       0.00709385
C       -0.46484000       6.17335000      13.87347553      -0.02035739      -0.01274516       0.00816346
C        9.29791000       0.53682000      13.87401122      -0.00470968       0.00385219      -0.00606065
C        6.04366000       6.17335000      13.87460784       0.00228629       0.00690786      -0.00585826
C        2.32458000       2.95241000      13.88752435       0.19726142       0.04037714       0.00239119
C       -0.92967000       8.58894000      13.87438279       0.00004844       0.01189952      -0.00112361
C        8.83308000       2.95241000      13.87394276      -0.00585006      -0.00654118      -0.00673389
C        5.57883000       8.58894000      13.87441024      -0.00743321      -0.00829957      -0.00363453
C        1.85954000       5.36812000      13.87506092       0.06324195       0.17320567       0.00709851
C       -1.39471000      11.00464000      13.87401147      -0.00048017      -0.00962916      -0.00605522
C        8.36804000       5.36812000      13.87460804      -0.00684251      -0.00545915      -0.00585905
C        5.11379000      11.00464000      13.87347784       0.02150609      -0.01500047       0.00815988
C        4.64896000       2.14718000      13.87347380       0.00364691       0.02587401       0.00816158
C        1.39471000       7.78370000      13.87400919       0.00994019       0.00473536      -0.00604953
C       11.15746000       2.14718000      13.87506021      -0.18031715      -0.03216779       0.00709570
C        7.90321000       7.78370000      13.87460611       0.00935994      -0.00298239      -0.00585931
C        0.00000000       0.00000000      10.12493468      -0.06062321      -0.17593362      -0.00710032
C        9.76275000       5.63653000      10.12598848       0.00312028       0.00679179       0.00604947
C        6.50850000       0.00000000      10.12539104       0.00949264       0.00274886       0.00586081
C        3.25425000       5.63653000      10.12652412      -0.01883627       0.01216206      -0.00816622
C       -0.46484000       2.41559000      10.11247980      -0.20408689      -0.03634967      -0.00240817
C       -3.71909000       8.05212000      10.12561819      -0.00705051      -0.00884324       0.00112405
C        6.04366000       2.41559000      10.12605814      -0.00118353       0.01045432       0.00673502
C        2.78941000       8.05212000      10.12559088       0.00044450       0.01136383       0.00363214
C       -0.92974000       4.83129000      10.12493862      -0.12175288       0.14005772      -0.00709951
C       -4.18399000      10.46782000      10.12652472       0.02059112       0.00944019      -0.00817668
C        5.57876000       4.83129000      10.12598866       0.00488689      -0.00663447       0.00605752
C        2.32451000      10.46782000      10.12539166      -0.00202145      -0.01027505       0.00585757
C        1.85967000       1.61036000      10.11247445       0.13203807      -0.15315255      -0.00239451
C       -1.39458000       7.24688000      10.12605700      -0.01003912      -0.00028170       0.00672991
C        8.36817000       1.61036000      10.12559008      -0.01207185       0.00011343       0.00362697
C        5.11392000       7.24688000      10.12561721       0.00919509       0.00410627       0.00112842
C        1.39464000       4.02606000      10.11247757       0.07287365       0.19389995      -0.00241041
C       -1.85961000       9.66258000      10.12558961       0.01222570      -0.00717471       0.00362989
C        7.90314000       4.02606000      10.12561675      -0.00143574       0.00924544       0.00112903
C        4.64889000       9.66258000      10.12605752       0.01187684      -0.00508009       0.00672071
C        4.18412000       0.80523000      10.12656715      -0.01568807      -0.02080616      -0.00912185
C        0.92987000       6.44176000      10.12656755       0.01994342      -0.00298861      -0.00911791
C       10.69262000       0.80523000      10.12656584      -0.01344138       0.01915794      -0.00912538
C        7.43837000       6.44176000      10.12553108      -0.00315810      -0.00165544      -0.00439105
C        3.71915000       3.22082000      10.12494065       0.18489720       0.03606543      -0.00710630
C        0.46490000       8.85735000      10.12539208      -0.00458378       0.00730807       0.00585863
C       10.22765000       3.22082000      10.12652580       0.00105834      -0.02189361      -0.00817903
C        6.97340000       8.85735000      10.12598966      -0.00517268      -0.00043220       0.00604159
C       -2.32445000       4.56288000      10.12656557       0.01344503       0.02022060      -0.00910969
C       -5.57870000      10.19941000      10.12656346      -0.02222921       0.00210596      -0.00911109
C        4.18405000       4.56288000      10.12656657       0.01112856      -0.01972148      -0.00911470
C        0.92980000      10.19941000      10.12552880       0.00085051       0.00077648      -0.00438797
C        0.46490000       1.34206000      10.11247335      -0.06461902      -0.19824128      -0.00238322
C       -2.78935000       6.97858000      10.12558946      -0.00404338       0.00337311       0.00363240
C        6.97340000       1.34206000      10.12561756       0.00967254      -0.01363278       0.00111955
C        3.71915000       6.97858000      10.12605754      -0.00367562       0.00128581       0.00672965
C        0.00007000       3.75765000      10.11247841      -0.13845000       0.15554916      -0.00239792
C       -3.25418000       9.39417000      10.12605753       0.00349161       0.00364539       0.00673559
C        6.50857000       3.75765000      10.12558969       0.00557318       0.00255391       0.00362853
C        3.25432000       9.39417000      10.12561767      -0.01576962      -0.00070831       0.00112217
C        2.78941000       0.53682000      10.12493840       0.12182524      -0.14265203      -0.00709385
C       -0.46484000       6.17335000      10.12652447      -0.02035739      -0.01274516      -0.00816346
C        9.29791000       0.53682000      10.12598878      -0.00470968       0.00385219       0.00606065
C        6.04366000       6.17335000      10.12539216       0.00228629       0.00690786       0.00585826
C        2.32458000       2.95241000      10.11247565       0.19726142       0.04037714      -0.00239119
C       -0.92967000       8.58894000      10.12561721       0.00004844       0.01189952       0.00112361
C        8.83308000       2.95241000      10.12605724      -0.00585006      -0.00654118       0.00673389
C        5.57883000       8.58894000      10.12558976      -0.00743321      -0.00829957       0.00363453
C        1.85954000       5.36812000      10.12493908       0.06324195       0.17320567      -0.00709851
C       -1.39471000      11.00464000      10.12598853      -0.00048017      -0.00962916       0.00605522
C        8.36804000       5.36812000      10.12539196      -0.00684251      -0.00545915       0.00585905
C        5.11379000      11.00464000      10.12652216       0.02150609      -0.01500047      -0.00815988
C        4.64896000       2.14718000      10.12652620       0.00364691       0.02587401      -0.00816158
C        1.39471000       7.78370000      10.12599081       0.00994019       0.00473536       0.00604953
C       11.15746000       2.14718000      10.12493979      -0.18031715      -0.03216779      -0.00709570
C        7.90321000       7.78370000      10.12539389       0.00935994      -0.00298239       0.00585931
Li       0.92987166       2.68403247      12.00000000       0.00000170       0.00000881      -0.00000000
