125
Lattice="13.696700096 0.0 0.0 -6.848350048 11.861690231 0.0 0.0 0.0 24.0" Properties=species:S:1:pos:R:3:forces:R:3 energy=-1154.0649346512769 free_energy=-1154.0649346512769 stress="-0.06691705732543086 3.5082253178400517e-06 4.709720772077405e-08 3.5082253178400517e-06 -0.06691568294581793 -4.948671224944246e-08 4.709720772077405e-08 -4.948671224944246e-08 -3.5030208865904974e-05" pbc="T T T"
C        0.00000000       0.00000000      13.97204266      -0.04659334      -0.29906045       0.00170290
C       -0.88364000       2.29583000      13.97204495      -0.23580164       0.18987221       0.00170850
C       -1.76729000       4.59166000      13.84106605       0.00563921      -0.00826735       0.00070194
C       -2.65106000       6.88749000      13.75709799       0.00175718      -0.00967494      -0.00034307
C       -3.53464000       9.18320000      13.78396816      -0.00101648      -0.00392463      -0.00428928
C       -4.41828000      11.47903000      13.89549138       0.10295023      -0.08271313       0.00641621
C        1.54643000       1.91317000      13.97203342       0.28204536       0.10940377       0.00170526
C        0.66278000       4.20900000      13.89547085       0.01948486       0.12955704       0.00640722
C       -0.22100000       6.50483000      13.78376541      -0.00032580       0.00972066      -0.00391682
C       -1.10464000       8.80066000      13.74412701       0.00276585      -0.00384940       0.00532358
C       -1.98821000      11.09637000      13.78379833       0.00547820      -0.00152424      -0.00391343
C        3.97649000       1.53051000      13.84105731      -0.00872697      -0.00057895       0.00070456
C        3.09285000       3.82634000      13.83984235      -0.00837969      -0.00456901      -0.00012890
C        2.20907000       6.12217000      13.78393994       0.00797412       0.00393889      -0.00429939
C        1.32543000       8.41800000      13.74413062       0.00177307       0.00357971       0.00532877
C        0.44179000      10.71383000      13.74413500      -0.00305613      -0.00057589       0.00532322
C        6.40656000       1.14786000      13.75711050      -0.01171699       0.00536407      -0.00034407
C        5.52292000       3.44369000      13.75978154      -0.02320543      -0.00561563      -0.00167666
C        4.63928000       5.73952000      13.75001428      -0.00859967      -0.01295011      -0.00019896
C        3.75550000       8.03535000      13.75710761       0.00671069       0.00551010      -0.00033806
C        2.87186000      10.33118000      13.78378187      -0.00801620      -0.00539249      -0.00391374
C        8.83656000       0.76532000      13.78396261      -0.00601636       0.00080501      -0.00429185
C        7.95299000       3.06103000      13.75000339       0.01120052       0.00273571      -0.00019982
C        7.06935000       5.35686000      13.72837907      -0.00057624      -0.00049474       0.00699800
C        6.18557000       7.65269000      13.75979260       0.00679224       0.02281264      -0.00167487
C        5.30192000       9.94852000      13.84106096       0.00437256       0.00827398       0.00069928
C       11.26663000       0.38266000      13.89548604      -0.12281538      -0.04772232       0.00640961
C       10.38299000       2.67849000      13.83987565       0.00903924      -0.00569397      -0.00012223
C        9.49941000       4.97420000      13.75977365       0.01338768      -0.01288357      -0.00167963
C        8.61564000       7.27003000      13.75001400      -0.01013847       0.01464160      -0.00020053
C        7.73199000       9.56586000      13.83986590       0.00041481       0.00967956      -0.00012359
C       -4.86014000       8.67303000      13.78813466      -0.00496117       0.01188940       0.00155087
C       -5.74378000      10.96886000      13.91541466       0.07482933      -0.15245855       0.00345233
C        0.22093000       1.40300000      14.02459645       0.00003463       0.00000380      -0.00437257
C       -0.66271000       3.69883000      13.91571688      -0.04651250       0.16248349       0.00314944
C       -1.54649000       5.99466000      13.78980536       0.00873633      -0.01152633       0.00066503
C       -2.43014000       8.29049000      13.75296012      -0.00116677       0.00394103       0.00302692
C       -3.31371000      10.58620000      13.81927663      -0.02661361       0.02233935      -0.00031381
C        2.65100000       1.02034000      13.91571436       0.16349498      -0.04128878       0.00315333
C        1.76735000       3.31617000      13.91539246       0.09487223       0.14148513       0.00344571
C        0.88357000       5.61200000      13.81923789      -0.00433730      -0.03291341      -0.00032007
C       -0.00007000       7.90783000      13.74744600       0.00077457      -0.01471379      -0.00248884
C       -0.88371000      10.20366000      13.74745429      -0.01024771       0.00397062      -0.00248107
C        5.08106000       0.63768000      13.78982581      -0.01523116      -0.00063669       0.00067136
C        4.19742000       2.93351000      13.81503720       0.03083132       0.01223909      -0.00098909
C        3.31378000       5.22934000      13.78811463      -0.01062886      -0.00827451       0.00154635
C        2.43000000       7.52517000      13.75296291      -0.00345653      -0.00714442       0.00301875
C        1.54636000       9.82101000      13.74745685       0.01233482       0.00780503      -0.00248888
C        7.51106000       0.25514000      13.75297046       0.01088493      -0.00170515       0.00303074
C        6.62749000       2.55086000      13.74965191       0.00348117      -0.00112752       0.00222875
C        5.74385000       4.84669000      13.74119750      -0.00029657      -0.00198731      -0.00313995
C        4.86007000       7.14252000      13.74966079      -0.00286953      -0.00205001       0.00222146
C        3.97643000       9.43835000      13.78981623       0.00585292       0.01310961       0.00066363
C        3.09278000      11.73418000      13.81926119       0.03157636       0.01163912      -0.00031555
C        9.05749000       2.16832000      13.78813571       0.01490102      -0.00447902       0.00154806
C        8.17392000       4.46403000      13.74118515       0.00134763       0.00129346      -0.00313209
C        7.29014000       6.75986000      13.74120026      -0.00155180       0.00163454      -0.00313636
C        6.40649000       9.05569000      13.81505109      -0.00455702      -0.03266318      -0.00098430
C        5.52285000      11.35152000      13.91571518      -0.11765891      -0.12117068       0.00315888
C       11.48756000       1.78566000      13.91541949      -0.16981040       0.01160255       0.00344800
C       10.60392000       4.08149000      13.81506000      -0.02359796       0.01823603      -0.00098666
C        9.72014000       6.37732000      13.74964811       0.00275472       0.00005223       0.00223175
C        0.00000000       0.00000000      10.06824512      -0.04505645      -0.28688771      -0.00183320
C       -0.88364000       2.29583000      10.06821779      -0.22619510       0.18268499      -0.00183686
C       -1.76729000       4.59166000      10.16851134      -0.03021460      -0.01414041      -0.00134977
C       -2.65106000       6.88749000      10.23159119       0.01061288       0.00341930      -0.00083688
C       -3.53464000       9.18320000      10.21378688       0.00159689       0.01515585       0.00098515
C       -4.41828000      11.47903000      10.13199058       0.16217215      -0.13022136      -0.00060986
C        1.54643000       1.91317000      10.06824810       0.27077179       0.10435563      -0.00183394
C        0.66278000       4.20900000      10.13194396       0.03177848       0.20563505      -0.00061620
C       -0.22100000       6.50483000      10.21620241       0.00991354      -0.01110593      -0.00035177
C       -1.10464000       8.80066000      10.24559224       0.00234498      -0.00288169      -0.00096149
C       -1.98821000      11.09637000      10.21622463      -0.01544837      -0.00156805      -0.00034542
C        3.97649000       1.53051000      10.16854807       0.00627328       0.03462242      -0.00134806
C        3.09285000       3.82634000      10.16778099       0.02916368      -0.02023456       0.00091230
C        2.20907000       6.12217000      10.21374726      -0.01202602      -0.00502286       0.00097998
C        1.32543000       8.41800000      10.24556910       0.00077855      -0.00041324      -0.00096468
C        0.44179000      10.71383000      10.24558423       0.00320291      -0.00145688      -0.00096226
C        6.40656000       1.14786000      10.23158671       0.00222260      -0.00996982      -0.00083403
C        5.52292000       3.44369000      10.22439147       0.00865466       0.00184465      -0.00147947
C        4.63928000       5.73952000      10.23143850      -0.00704623       0.00856149      -0.00002732
C        3.75550000       8.03535000      10.23154905      -0.01089017       0.00244363      -0.00084075
C        2.87186000      10.33118000      10.21619276       0.00486093       0.01392829      -0.00035084
C        8.83656000       0.76532000      10.21375983       0.01454577      -0.01181698       0.00098246
C        7.95299000       3.06103000      10.23147854      -0.00536967      -0.00638607      -0.00002407
C        7.06935000       5.35686000      10.24332138      -0.00031150      -0.00024649      -0.00257984
C        6.18557000       7.65269000      10.22437532      -0.00201200      -0.00766476      -0.00148148
C        5.30192000       9.94852000      10.16851658       0.02696506      -0.02268514      -0.00134971
C       11.26663000       0.38266000      10.13194329      -0.19417671      -0.07521650      -0.00061635
C       10.38299000       2.67849000      10.16776703       0.00645323       0.03280040       0.00091099
C        9.49941000       4.97420000      10.22441208      -0.00591442       0.00719928      -0.00148060
C        8.61564000       7.27003000      10.23147475       0.00778362       0.00015968      -0.00002225
C        7.73199000       9.56586000      10.16779873      -0.03236670      -0.01475039       0.00091471
C       -2.87179000       5.48437000      10.21237160      -0.00130770      -0.01107565       0.00051064
C       -3.75557000       7.78020000      10.23083087      -0.00792263      -0.00524126      -0.00210668
C       -4.63921000      10.07603000      10.16862139       0.03229498       0.01736115      -0.00129097
C        1.32550000       0.51017000      10.06806640       0.22002065      -0.17774287      -0.00178655
C        0.44186000       2.80600000      10.06803616       0.04367695       0.27943100      -0.00179142
C       -0.44179000       5.10183000      10.16921447       0.03585260       0.00927752       0.00132349
C       -1.32557000       7.39766000      10.23492023      -0.00607344      -0.00020630       0.00011029
C       -2.20914000       9.69337000      10.22803408       0.00321255      -0.00381953      -0.00108170
C        3.75557000       0.12751000      10.16925877      -0.00919680      -0.03598434       0.00132953
C        2.87192000       2.42334000      10.13093859       0.18591805       0.07136995      -0.00045544
C        1.98828000       4.71917000      10.16857999      -0.03194477       0.01820658      -0.00129683
C        1.10450000       7.01500000      10.22800564       0.00261117       0.00885564      -0.00108636
C        0.22086000       9.31083000      10.24926500       0.00079497      -0.00062539      -0.00074542
C       -0.66271000      11.60655000      10.23492282       0.00043413       0.00770822       0.00011163
C        5.30199000       2.04069000      10.21236584      -0.01434636       0.00585694       0.00051357
C        4.41835000       4.33652000      10.21256903      -0.00809283      -0.01440375      -0.00049736
C        3.53457000       6.63235000      10.23078614       0.01240739      -0.00228843      -0.00211159
C        2.65093000       8.92818000      10.23489354       0.00266240      -0.00578759       0.00010783
C        1.76729000      11.22401000      10.22801157      -0.00812576      -0.00287850      -0.00108544
C        7.73206000       1.65803000      10.23082360      -0.00675026       0.01130533      -0.00210926
C        6.84842000       3.95386000      10.24028094      -0.00014853      -0.00148643      -0.00103096
C        5.96478000       6.24969000      10.24025692      -0.00263772       0.00060304      -0.00103236
C        5.08100000       8.54552000      10.21233339       0.01224706       0.00909800       0.00051060
C        4.19735000      10.84135000      10.16921621      -0.02603665       0.02600739       0.00132355
C       10.16206000       1.27549000      10.16857613      -0.00001211      -0.03708451      -0.00129574
C        9.27849000       3.57120000      10.21259605       0.01344911       0.00267388      -0.00049578
C        8.39484000       5.86703000      10.24028835       0.00111916       0.00001359      -0.00102978
C        7.51106000       8.16286000      10.21258279      -0.00810549       0.01436138      -0.00049632
C        6.62742000      10.45869000      10.13093077      -0.03122908      -0.19641092      -0.00045714
C       12.59213000       0.89283000      10.06803448      -0.26389857      -0.10177495      -0.00179160
C       11.70849000       3.18866000      10.13089886      -0.15394786       0.12455016      -0.00045857
Li       0.22091038       1.40300155      11.88315810      -0.00000186      -0.00000047       0.00410740
