125
Lattice="13.696700096 0.0 0.0 -6.848350048 11.861690231 0.0 0.0 0.0 24.0" Properties=species:S:1:pos:R:3:forces:R:3 energy=-1154.0367386952896 free_energy=-1154.0367386952896 stress="-0.06791657913583124 3.55921094600542e-06 9.210365350624911e-18 3.55921094600542e-06 -0.06791513974313805 -4.159129920362006e-18 9.210365350624911e-18 -4.159129920362006e-18 -2.9198824151959847e-05" pbc="T T T"
C        0.00000000       0.00000000      13.87506925      -0.02886891      -0.18290780       0.00703211
C       -0.88364000       2.29583000      13.88758842      -0.19245672      -0.07400805       0.00227176
C       -1.76729000       4.59166000      13.87506763      -0.14342538       0.11583565       0.00703185
C       -2.65106000       6.88749000      13.87390795      -0.00791295      -0.00430357      -0.00486482
C       -3.53464000       9.18320000      13.87448546      -0.00556057      -0.00845743      -0.00318107
C       -4.41828000      11.47903000      13.87344078       0.01898911       0.01304576       0.00808815
C        1.54643000       1.91317000      13.88758901       0.16011494      -0.12940970       0.00227107
C        0.66278000       4.20900000      13.88758965       0.03146895       0.20294948       0.00227138
C       -0.22100000       6.50483000      13.87342104       0.02305178       0.00307368       0.00906881
C       -1.10464000       8.80066000      13.87465308      -0.00900358       0.00405796      -0.00541813
C       -1.98821000      11.09637000      13.87460606       0.00266273      -0.00334567      -0.00547833
C        3.97649000       1.53051000      13.87342063      -0.00840982      -0.02115126       0.00906586
C        3.09285000       3.82634000      13.87506983       0.17302223       0.06675007       0.00703205
C        2.20907000       6.12217000      13.87344284      -0.01761390       0.00855099       0.00809444
C        1.32543000       8.41800000      13.87460860       0.00229996       0.00823511      -0.00547506
C        0.44179000      10.71383000      13.87496769       0.00070643      -0.00050126      -0.00406338
C        6.40656000       1.14786000      13.87465295       0.00591833       0.00855862      -0.00541869
C        5.52292000       3.44369000      13.87390932       0.00082115       0.00847521      -0.00486325
C        4.63928000       5.73952000      13.87405352       0.00368918      -0.00634509      -0.00577226
C        3.75550000       8.03535000      13.87448702       0.01075951       0.00287019      -0.00317477
C        2.87186000      10.33118000      13.87465464       0.00074873      -0.01094410      -0.00541371
C        8.83656000       0.76532000      13.87460651      -0.00732982      -0.00270223      -0.00547725
C        7.95299000       3.06103000      13.87448527      -0.01157821       0.01025067      -0.00317803
C        7.06935000       5.35686000      13.87462810      -0.00103332      -0.00261842       0.00465672
C        6.18557000       7.65269000      13.87462843      -0.00170253       0.00146615       0.00465715
C        5.30192000       9.94852000      13.87390940       0.00730411      -0.00503390      -0.00485943
C       11.26663000       0.38266000      13.87342104      -0.01377599       0.01823918       0.00907008
C       10.38299000       2.67849000      13.87343982       0.00261140      -0.02352240       0.00808728
C        9.49941000       4.97420000      13.87405210      -0.00034051       0.01202325      -0.00578000
C        8.61564000       7.27003000      13.87462771      -0.00063156       0.00291782       0.00465491
C        7.73199000       9.56586000      13.87405274      -0.00754183      -0.00174118      -0.00577593
C       -4.86014000       8.67303000      13.87465313       0.00929124      -0.00399683      -0.00541551
C       -5.74378000      10.96886000      13.87342107      -0.02276470      -0.00277242       0.00906845
C        0.22093000       1.40300000      13.88758913      -0.03204329      -0.20361910       0.00226885
C       -0.66271000       3.69883000      13.88758876      -0.16070850       0.12954403       0.00226686
C       -1.54649000       5.99466000      13.87343964      -0.01855044      -0.01277219       0.00809030
C       -2.43014000       8.29049000      13.87448543       0.00578841       0.00865729      -0.00317952
C       -3.31371000      10.58620000      13.87390776       0.00706016       0.00419725      -0.00486330
C        2.65100000       1.02034000      13.87506867       0.14367474      -0.11637067       0.00703180
C        1.76735000       3.31617000      13.88758932       0.19256675       0.07444594       0.00226868
C        0.88357000       5.61200000      13.87507044       0.03035274       0.18318374       0.00702745
C       -0.00007000       7.90783000      13.87405301       0.00777201       0.00172678      -0.00577423
C       -0.88371000      10.20366000      13.87462698       0.00098016      -0.00337387       0.00465689
C        5.08106000       0.63768000      13.87405131      -0.00319921      -0.00681095      -0.00577606
C        4.19742000       2.93351000      13.87344171      -0.00187543       0.02289971       0.00809042
C        3.31378000       5.22934000      13.87342211       0.01075726      -0.01713370       0.00907130
C        2.43000000       7.52517000      13.87391075      -0.00715655       0.00495888      -0.00486321
C        1.54636000       9.82101000      13.87462870       0.00148791      -0.00183484       0.00465717
C        7.51106000       0.25514000      13.87462710       0.00352798      -0.00018340       0.00465651
C        6.62749000       2.55086000      13.87448541       0.00758420      -0.00713854      -0.00317905
C        5.74385000       4.84669000      13.87460796       0.00800376       0.00173907      -0.00547707
C        4.86007000       7.14252000      13.87465459      -0.00008433       0.01160082      -0.00541416
C        3.97643000       9.43835000      13.87448695      -0.01115070      -0.00361568      -0.00317733
C        3.09278000      11.73418000      13.87405299      -0.00543855       0.00619145      -0.00577801
C        9.05749000       2.16832000      13.87390791       0.00214021      -0.01133579      -0.00486495
C        8.17392000       4.46403000      13.87465314      -0.00927135      -0.00555040      -0.00541571
C        7.29014000       6.75986000      13.87496827      -0.00013471       0.00053264      -0.00406055
C        6.40649000       9.05569000      13.87460783      -0.00213252      -0.00797263      -0.00547628
C        5.52285000      11.35152000      13.87344169       0.02084073      -0.00962571       0.00808871
C       11.48756000       1.78566000      13.87506830      -0.17310114      -0.06632411       0.00702880
C       10.60392000       4.08149000      13.87341965       0.01118081       0.01891190       0.00906718
C        9.72014000       6.37732000      13.87460660      -0.00238108       0.00153416      -0.00547754
C        0.00000000       0.00000000      10.12493075      -0.02886891      -0.18290780      -0.00703211
C       -0.88364000       2.29583000      10.11241158      -0.19245672      -0.07400805      -0.00227176
C       -1.76729000       4.59166000      10.12493237      -0.14342538       0.11583565      -0.00703185
C       -2.65106000       6.88749000      10.12609205      -0.00791295      -0.00430357       0.00486482
C       -3.53464000       9.18320000      10.12551454      -0.00556057      -0.00845743       0.00318107
C       -4.41828000      11.47903000      10.12655922       0.01898911       0.01304576      -0.00808815
C        1.54643000       1.91317000      10.11241099       0.16011494      -0.12940970      -0.00227107
C        0.66278000       4.20900000      10.11241035       0.03146895       0.20294948      -0.00227138
C       -0.22100000       6.50483000      10.12657896       0.02305178       0.00307368      -0.00906881
C       -1.10464000       8.80066000      10.12534692      -0.00900358       0.00405796       0.00541813
C       -1.98821000      11.09637000      10.12539394       0.00266273      -0.00334567       0.00547833
C        3.97649000       1.53051000      10.12657937      -0.00840982      -0.02115126      -0.00906586
C        3.09285000       3.82634000      10.12493017       0.17302223       0.06675007      -0.00703205
C        2.20907000       6.12217000      10.12655716      -0.01761390       0.00855099      -0.00809444
C        1.32543000       8.41800000      10.12539140       0.00229996       0.00823511       0.00547506
C        0.44179000      10.71383000      10.12503231       0.00070643      -0.00050126       0.00406338
C        6.40656000       1.14786000      10.12534705       0.00591833       0.00855862       0.00541869
C        5.52292000       3.44369000      10.12609068       0.00082115       0.00847521       0.00486325
C        4.63928000       5.73952000      10.12594648       0.00368918      -0.00634509       0.00577226
C        3.75550000       8.03535000      10.12551298       0.01075951       0.00287019       0.00317477
C        2.87186000      10.33118000      10.12534536       0.00074873      -0.01094410       0.00541371
C        8.83656000       0.76532000      10.12539349      -0.00732982      -0.00270223       0.00547725
C        7.95299000       3.06103000      10.12551473      -0.01157821       0.01025067       0.00317803
C        7.06935000       5.35686000      10.12537190      -0.00103332      -0.00261842      -0.00465672
C        6.18557000       7.65269000      10.12537157      -0.00170253       0.00146615      -0.00465715
C        5.30192000       9.94852000      10.12609060       0.00730411      -0.00503390       0.00485943
C       11.26663000       0.38266000      10.12657896      -0.01377599       0.01823918      -0.00907008
C       10.38299000       2.67849000      10.12656018       0.00261140      -0.02352240      -0.00808728
C        9.49941000       4.97420000      10.12594790      -0.00034051       0.01202325       0.00578000
C        8.61564000       7.27003000      10.12537229      -0.00063156       0.00291782      -0.00465491
C        7.73199000       9.56586000      10.12594726      -0.00754183      -0.00174118       0.00577593
C       -4.86014000       8.67303000      10.12534687       0.00929124      -0.00399683       0.00541551
C       -5.74378000      10.96886000      10.12657893      -0.02276470      -0.00277242      -0.00906845
C        0.22093000       1.40300000      10.11241087      -0.03204329      -0.20361910      -0.00226885
C       -0.66271000       3.69883000      10.11241124      -0.16070850       0.12954403      -0.00226686
C       -1.54649000       5.99466000      10.12656036      -0.01855044      -0.01277219      -0.00809030
C       -2.43014000       8.29049000      10.12551457       0.00578841       0.00865729       0.00317952
C       -3.31371000      10.58620000      10.12609224       0.00706016       0.00419725       0.00486330
C        2.65100000       1.02034000      10.12493133       0.14367474      -0.11637067      -0.00703180
C        1.76735000       3.31617000      10.11241068       0.19256675       0.07444594      -0.00226868
C        0.88357000       5.61200000      10.12492956       0.03035274       0.18318374      -0.00702745
C       -0.00007000       7.90783000      10.12594699       0.00777201       0.00172678       0.00577423
C       -0.88371000      10.20366000      10.12537302       0.00098016      -0.00337387      -0.00465689
C        5.08106000       0.63768000      10.12594869      -0.00319921      -0.00681095       0.00577606
C        4.19742000       2.93351000      10.12655829      -0.00187543       0.02289971      -0.00809042
C        3.31378000       5.22934000      10.12657789       0.01075726      -0.01713370      -0.00907130
C        2.43000000       7.52517000      10.12608925      -0.00715655       0.00495888       0.00486321
C        1.54636000       9.82101000      10.12537130       0.00148791      -0.00183484      -0.00465717
C        7.51106000       0.25514000      10.12537290       0.00352798      -0.00018340      -0.00465651
C        6.62749000       2.55086000      10.12551459       0.00758420      -0.00713854       0.00317905
C        5.74385000       4.84669000      10.12539204       0.00800376       0.00173907       0.00547707
C        4.86007000       7.14252000      10.12534541      -0.00008433       0.01160082       0.00541416
C        3.97643000       9.43835000      10.12551305      -0.01115070      -0.00361568       0.00317733
C        3.09278000      11.73418000      10.12594701      -0.00543855       0.00619145       0.00577801
C        9.05749000       2.16832000      10.12609209       0.00214021      -0.01133579       0.00486495
C        8.17392000       4.46403000      10.12534686      -0.00927135      -0.00555040       0.00541571
C        7.29014000       6.75986000      10.12503173      -0.00013471       0.00053264       0.00406055
C        6.40649000       9.05569000      10.12539217      -0.00213252      -0.00797263       0.00547628
C        5.52285000      11.35152000      10.12655831       0.02084073      -0.00962571      -0.00808871
C       11.48756000       1.78566000      10.12493170      -0.17310114      -0.06632411      -0.00702880
C       10.60392000       4.08149000      10.12658035       0.01118081       0.01891190      -0.00906718
C        9.72014000       6.37732000      10.12539340      -0.00238108       0.00153416       0.00547754
Li       0.44185957       2.80599381      12.00000000       0.00000096      -0.00000110       0.00000000
