145
Lattice="14.760000229 0.0 0.0 -7.380000114 12.782535158 0.0 0.0 0.0 24.0" Properties=species:S:1:pos:R:3:forces:R:3 energy=-1339.902755440192 free_energy=-1339.902755440192 stress="-0.06675173472186025 -6.3026825948308e-06 7.064410243314548e-08 -6.3026825948308e-06 -0.06675880173952789 -1.674224115956714e-08 7.064410243314548e-08 -1.674224115956714e-08 -0.00014310961278900497" pbc="T T T"
C        0.00000000       0.00000000      13.96170273       0.00312542      -0.30163984      -0.00114586
C       -1.23002000       2.13047000      13.96173106      -0.25704986       0.14718125      -0.00114946
C       12.30002000       4.26080000      13.83418658       0.00574960      -0.00470015       0.00851749
C       -3.69000000       6.39127000      13.75232890       0.00580872      -0.01014635       0.00242224
C       -4.92002000       8.52173000      13.75232626      -0.00296620       0.00394901       0.00241366
C       -6.14998000      10.65207000      13.83420172      -0.00272779       0.00985785       0.00851541
C        2.46005000       0.00000000      13.88689631       0.10875172      -0.06493447       0.00482623
C        1.23002000       2.13047000      13.96167592       0.25854223       0.14754929      -0.00116044
C        0.00007000       4.26080000      13.88684884      -0.00408854       0.12992355       0.00482153
C       -1.22995000       6.39127000      13.78091663      -0.00620072       0.00687635       0.00849025
C       -2.45998000       8.52173000      13.74350813      -0.00110829      -0.00185849      -0.00025134
C       -3.68993000      10.65207000      13.78095664       0.00082076      -0.00572867       0.00850418
C        4.91995000       0.00000000      13.78094934       0.01351534      -0.00150791       0.00851136
C        3.68993000       2.13047000      13.83413813      -0.00485321      -0.00333820       0.00850905
C        2.45998000       4.26080000      13.83411700      -0.00415438      -0.00441618       0.00850219
C        1.22995000       6.39127000      13.78090286       0.00862640       0.00673291       0.00849725
C       -0.00007000       8.52173000      13.74288523       0.00365190       0.00098808      -0.00063936
C       -1.23002000      10.65207000      13.74290342       0.00331692       0.00092116      -0.00062936
C        7.38000000       0.00000000      13.74356785       0.00331333      -0.00186515      -0.00023552
C        6.14998000       2.13047000      13.75234405      -0.00547168      -0.00100216       0.00242401
C        4.92002000       4.26080000      13.76068028      -0.01516595      -0.00702986       0.00736800
C        3.69000000       6.39127000      13.75229689       0.00079862      -0.01014410       0.00241598
C        2.45998000       8.52173000      13.74351740       0.00276984      -0.00226338      -0.00024777
C        1.23002000      10.65207000      13.74292319      -0.00173407       0.00060687      -0.00062201
C        9.84005000       0.00000000      13.78101352      -0.01110945      -0.00137680       0.00851855
C        8.61002000       2.13047000      13.75238650       0.00714732      -0.00060824       0.00243253
C        7.38007000       4.26080000      13.73425530      -0.00407074       0.00369494      -0.00313784
C        6.15005000       6.39127000      13.73423300      -0.00057563      -0.00200329      -0.00314636
C        4.92002000       8.52173000      13.75232296       0.00462341       0.00436681       0.00241680
C        3.69007000      10.65207000      13.78098062      -0.00898483      -0.00570809       0.00851319
C       12.29995000       0.00000000      13.88695037      -0.10629000      -0.06505404       0.00484490
C       11.06993000       2.13047000      13.83425946       0.01206450      -0.00330697       0.00852979
C        9.83998000       4.26080000      13.76074137       0.01676371      -0.00671931       0.00737499
C        8.60995000       6.39127000      13.73425031       0.00299732      -0.00214997      -0.00314599
C        7.37993000       8.52173000      13.76070356       0.00365305       0.01652239       0.00736199
C        6.14998000      10.65207000      13.83420602       0.00429766       0.01018862       0.00852087
C        0.00007000       1.42027000      14.01491050      -0.00351650       0.00135666      -0.00248317
C       -1.22995000       3.55073000      13.90591225      -0.06832098       0.14851493       0.00921593
C       -2.45990000       5.68107000      13.78614508       0.00384972      -0.00350570       0.00330197
C       -3.68993000       7.81154000      13.74394449      -0.00368681       0.00117890      -0.00161322
C       -4.91995000       9.94200000      13.78616966      -0.00233945       0.00720398       0.00330751
C       -6.14990000      12.07234000      13.90593212       0.09318734      -0.13144377       0.00923041
C        2.45998000       1.42027000      13.90587892       0.16530553      -0.01576165       0.00921998
C        1.22995000       3.55073000      13.90586096       0.07138067       0.14848659       0.00920858
C        0.00000000       5.68107000      13.81414392       0.00151405      -0.02780763       0.00570562
C       -1.23002000       7.81154000      13.74940470       0.00364046      -0.00890584      -0.00398597
C       -2.46005000       9.94200000      13.74941579      -0.00329314       0.00476799      -0.00396685
C       -3.69000000      12.07234000      13.81419817      -0.02441029       0.01698312       0.00572317
C        4.92002000       1.42027000      13.78616033      -0.01172584      -0.00206599       0.00331424
C        3.69000000       3.55073000      13.81098444       0.02640970       0.01373479       0.00515206
C        2.46005000       5.68107000      13.78611232      -0.01109186      -0.00315626       0.00329380
C        1.23002000       7.81154000      13.74940650      -0.00532725      -0.00853434      -0.00398306
C        0.00000000       9.94200000      13.73638936      -0.00049057      -0.00203997      -0.00609279
C       -1.22995000      12.07234000      13.74945039      -0.01329057       0.00540940      -0.00395758
C        7.38007000       1.42027000      13.74399524      -0.00365739       0.00144419      -0.00158949
C        6.15005000       3.55073000      13.74638976       0.00098434      -0.00186034      -0.00459783
C        4.92010000       5.68107000      13.74636555      -0.00257479       0.00405413      -0.00460198
C        3.69007000       7.81154000      13.74393678      -0.00364680       0.00118085      -0.00161031
C        2.46005000       9.94200000      13.74944281       0.00630719       0.00479622      -0.00396892
C        1.23010000      12.07234000      13.74947355       0.00606058       0.00509109      -0.00395655
C        9.83998000       1.42027000      13.78624158       0.01006387      -0.00238735       0.00334095
C        8.60995000       3.55073000      13.74642786       0.00202997      -0.00188383      -0.00457812
C        7.38000000       5.68107000      13.73222513       0.00151679       0.00211372      -0.00653691
C        6.14998000       7.81154000      13.74637907       0.00032013      -0.00084577      -0.00458955
C        4.91995000       9.94200000      13.78618086       0.00536519       0.00717240       0.00332310
C        3.69000000      12.07234000      13.81425818       0.02747841       0.01696582       0.00574372
C       12.30002000       1.42027000      13.90596282      -0.16693230      -0.01545796       0.00924565
C       11.07000000       3.55073000      13.81107865      -0.02744576       0.01373522       0.00517714
C        9.84005000       5.68107000      13.74639889      -0.00465856       0.00438158      -0.00458567
C        8.61002000       7.81154000      13.74638928      -0.00200250      -0.00048609      -0.00459539
C        7.38000000       9.94200000      13.81103898      -0.00048783      -0.03315322       0.00515983
C        6.15005000      12.07234000      13.90593750      -0.10030914      -0.13111179       0.00925142
C        0.00000000       0.00000000      10.07271702      -0.00332922      -0.29422815       0.00074534
C       -1.23002000       2.13047000      10.07276184      -0.25729027       0.14583604       0.00075093
C       12.30002000       4.26080000      10.17531551      -0.03285906      -0.01550347      -0.00801710
C       -3.69000000       6.39127000      10.23823792       0.00226681       0.01144156      -0.00242418
C       -4.92002000       8.52173000      10.23821414       0.01029234      -0.00175662      -0.00243132
C       -6.14998000      10.65207000      10.17523625      -0.03357041      -0.01441551      -0.00803633
C        2.46005000       0.00000000      10.13820395       0.17513815      -0.10164236      -0.00491328
C        1.23002000       2.13047000      10.07276277       0.25568652       0.14544649       0.00075258
C        0.00007000       4.26080000      10.13827883      -0.00356548       0.20871756      -0.00490219
C       -1.22995000       6.39127000      10.21942098       0.00693546      -0.00569999      -0.00242274
C       -2.45998000       8.52173000      10.24824995      -0.00101878      -0.00223484      -0.00119016
C       -3.68993000      10.65207000      10.21937147      -0.00442665       0.01509480      -0.00243583
C        4.91995000       0.00000000      10.21942442      -0.01013962      -0.00419133      -0.00242640
C        3.68993000       2.13047000      10.17531769       0.00340708       0.03225661      -0.00801518
C        2.45998000       4.26080000      10.17532862       0.03125220      -0.01584623      -0.00801823
C        1.22995000       6.39127000      10.21944302      -0.00933748      -0.00582974      -0.00242210
C       -0.00007000       8.52173000      10.24952596       0.00407861      -0.00420245       0.00146092
C       -1.23002000      10.65207000      10.24951757      -0.00047937       0.00310252       0.00145803
C        7.38000000       0.00000000      10.24830836      -0.00330248       0.00233409      -0.00117429
C        6.14998000       2.13047000      10.23829624       0.00472326      -0.01203079      -0.00240879
C        4.92002000       4.26080000      10.22933203       0.00574817       0.00763168      -0.00134317
C        3.69000000       6.39127000      10.23827691      -0.00888173       0.01143983      -0.00241630
C        2.45998000       8.52173000      10.24829887      -0.00056398      -0.00192504      -0.00118371
C        1.23002000      10.65207000      10.24954500      -0.00118250       0.00350250       0.00146584
C        9.84005000       0.00000000      10.21946509       0.00774080      -0.00406272      -0.00241041
C        8.61002000       2.13047000      10.23830848      -0.00629248      -0.01234587      -0.00240477
C        7.38007000       4.26080000      10.24797831      -0.00365039       0.00377305       0.00151497
C        6.15005000       6.39127000      10.24795528      -0.00259640       0.00073583       0.00150925
C        4.92002000       8.52173000      10.23826532      -0.01187191      -0.00206358      -0.00242106
C        3.69007000      10.65207000      10.21944604      -0.00282310       0.01512467      -0.00241612
C       12.29995000       0.00000000      10.13824377      -0.17729516      -0.10167691      -0.00490657
C       11.06993000       2.13047000      10.17531758       0.00469328       0.03225656      -0.00801067
C        9.83998000       4.26080000      10.22932885      -0.00739747       0.00723261      -0.00135106
C        8.60995000       6.39127000      10.24794189       0.00017893       0.00059709       0.00150196
C        7.37993000       8.52173000      10.22928134       0.00408331      -0.01220446      -0.00135977
C        6.14998000      10.65207000      10.17527118       0.03196304      -0.01478952      -0.00803054
C        1.22995000       0.71020000      10.07248396       0.25199733      -0.14615562       0.00009181
C        0.00000000       2.84053000      10.07252992       0.00049354       0.28980749       0.00009792
C       -1.23002000       4.97100000      10.17545855       0.03717817       0.01038627      -0.00811728
C       -2.46005000       7.10147000      10.23874643      -0.00628486      -0.00228883      -0.00169937
C       -3.69000000       9.23180000      10.23872377      -0.00374403      -0.00636512      -0.00170866
C       -4.92002000      11.36227000      10.17539187       0.03065866       0.02157872      -0.00813479
C        3.69000000       0.71020000      10.17543482      -0.00809020      -0.03804108      -0.00811941
C        2.46005000       2.84053000      10.13794842       0.16593455       0.10098343      -0.00634861
C        1.23002000       4.97100000      10.17547291      -0.03555668       0.01071715      -0.00811317
C        0.00000000       7.10147000      10.23081383      -0.00151834       0.00796268      -0.00037481
C       -1.22995000       9.23180000      10.25069519      -0.00249481       0.00363857       0.00192250
C       -2.45998000      11.36227000      10.23078788       0.00782851      -0.00690876      -0.00037944
C        6.14990000       0.71020000      10.23880029       0.00924016       0.00567160      -0.00168601
C        4.91995000       2.84053000      10.21830789      -0.01329934       0.00600515      -0.00300931
C        3.68993000       4.97100000      10.21830015      -0.00080582      -0.01570755      -0.00301319
C        2.45990000       7.10147000      10.23878923       0.01349653      -0.00196993      -0.00169390
C        1.22995000       9.23180000      10.25072245      -0.00051978       0.00360928       0.00192951
C       -0.00007000      11.36227000      10.25072168       0.00366220      -0.00370425       0.00193515
C        8.60995000       0.71020000      10.23881283      -0.00203425       0.00534689      -0.00167791
C        7.38000000       2.84053000      10.24652652       0.00048661       0.00096685      -0.00071011
C        6.14998000       4.97100000      10.24650343       0.00095332      -0.00300019       0.00095765
C        4.91995000       7.10147000      10.24649248       0.00201916      -0.00218792      -0.00072137
C        3.69000000       9.23180000      10.23878858       0.00473814      -0.00636409      -0.00169359
C        2.45998000      11.36227000      10.23084041      -0.00614417      -0.00726335      -0.00036558
C       11.07000000       0.71020000      10.17547248       0.00504007      -0.03802297      -0.00810796
C        9.84005000       2.84053000      10.21831924       0.01034011       0.00601201      -0.00301067
C        8.61002000       4.97100000      10.24650172       0.00072789      -0.00263921       0.00095495
C        7.38000000       7.10147000      10.24647813      -0.00152023      -0.00021520       0.00094865
C        6.15005000       9.23180000      10.21825737       0.00581235       0.01361297      -0.00303249
C        4.92002000      11.36227000      10.17544880      -0.02900595       0.02190334      -0.00811619
C       13.52990000       0.71020000      10.07248557      -0.24494769      -0.14602478       0.00009278
C       12.29995000       2.84053000      10.13795043      -0.16899281       0.10102071      -0.00634478
C       11.06993000       4.97100000      10.21827286       0.00809744      -0.01569298      -0.00302100
C        9.83990000       7.10147000      10.24645659       0.00520964      -0.00185253      -0.00073243
C        8.60995000       9.23180000      10.21822299      -0.00883265       0.01359298      -0.00303669
C        7.37993000      11.36227000      10.13789169       0.00356731      -0.19828425      -0.00636168
Li      -0.00007658       1.42004001      11.88060944       0.00000382      -0.00002294       0.00436908
