145
Lattice="14.760000229 0.0 0.0 -7.380000114 12.782535158 0.0 0.0 0.0 24.0" Properties=species:S:1:pos:R:3:forces:R:3 energy=-1339.8549597605288 free_energy=-1339.8549597605288 stress="-0.06771539530132385 -6.291639583178318e-06 -1.7002426297972529e-18 -6.291639583178318e-06 -0.06772222981773365 4.954839778356943e-19 -1.7002426297972529e-18 4.954839778356943e-19 -2.699775702819881e-05" pbc="T T T"
C        0.00000000       0.00000000      13.88758749      -0.17537153      -0.10486633       0.00226248
C       -1.23002000       2.13047000      13.87506860      -0.15767923       0.08977337       0.00690755
C       12.30002000       4.26080000      13.87398451      -0.00547168      -0.00306940      -0.00514556
C       -3.69000000       6.39127000      13.87469501       0.00605892      -0.00035771       0.00304686
C       -4.92002000       8.52173000      13.87398773      -0.00483993      -0.00511239      -0.00516905
C       -6.14998000      10.65207000      13.87505497       0.00074127      -0.18305219       0.00691543
C        2.46005000       0.00000000      13.88757143       0.17713794      -0.10429733       0.00230086
C        1.23002000       2.13047000      13.88758049      -0.00115631       0.20370899       0.00226525
C        0.00007000       4.26080000      13.87341562       0.01812266       0.00893723       0.00849419
C       -1.22995000       6.39127000      13.87466165      -0.01374271       0.00244124      -0.00454998
C       -2.45998000       8.52173000      13.87466069      -0.00393883      -0.01447118      -0.00454933
C       -3.68993000      10.65207000      13.87341386       0.01251587       0.01851028       0.00846279
C        4.91995000       0.00000000      13.87341957      -0.00177357      -0.02370718       0.00847366
C        3.68993000       2.13047000      13.87506419       0.16393898       0.09015378       0.00689901
C        2.45998000       4.26080000      13.87341607      -0.02132519       0.00879891       0.00849784
C        1.22995000       6.39127000      13.87465173       0.00387016       0.00627206      -0.00501945
C       -0.00007000       8.52173000      13.87503186       0.00428258      -0.00153132      -0.00191324
C       -1.23002000      10.65207000      13.87464859       0.00760781      -0.00156751      -0.00501567
C        7.38000000       0.00000000      13.87466524       0.01281154       0.00691740      -0.00455518
C        6.14998000       2.13047000      13.87398696       0.00143604       0.00514524      -0.00514893
C        4.92002000       4.26080000      13.87398521       0.00704778      -0.00306889      -0.00515189
C        3.69000000       6.39127000      13.87466512       0.01555270       0.00195468      -0.00455767
C        2.45998000       8.52173000      13.87503292       0.00217671      -0.00192267      -0.00191121
C        1.23002000      10.65207000      13.87503083       0.00078712       0.00129108      -0.00191000
C        9.84005000       0.00000000      13.87466196      -0.01097860       0.00740368      -0.00455912
C        8.61002000       2.13047000      13.87469070      -0.00118813      -0.00571055       0.00304704
C        7.38007000       4.26080000      13.87491423      -0.00520990       0.00196709       0.00262641
C        6.15005000       6.39127000      13.87469171      -0.00425583       0.00013264       0.00304785
C        4.92002000       8.52173000      13.87466071       0.00155814      -0.01446964      -0.00455744
C        3.69007000      10.65207000      13.87464646      -0.01086218      -0.00141248      -0.00502327
C       12.29995000       0.00000000      13.87341933       0.00946680      -0.02368996       0.00849078
C       11.06993000       2.13047000      13.87398489       0.00498433       0.00554983      -0.00515009
C        9.83998000       4.26080000      13.87491605       0.00194509       0.00181024       0.00263007
C        8.60995000       6.39127000      13.87491963       0.00387550      -0.00027383       0.00262975
C        7.37993000       8.52173000      13.87398709       0.01127939      -0.00471871      -0.00517258
C        6.14998000      10.65207000      13.87341637      -0.01573109       0.01840868       0.00847132
C        0.00007000       1.42027000      13.88758975      -0.18198497       0.10436130       0.00222699
C       -1.22995000       3.55073000      13.87341967      -0.01781256      -0.01816803       0.00846820
C       -2.45990000       5.68107000      13.87466284      -0.00119233       0.01480265      -0.00456173
C       -3.68993000       7.81154000      13.87466428       0.00862427      -0.00274844      -0.00455746
C       -4.91995000       9.94200000      13.87341433      -0.02339592      -0.00869093       0.00846652
C       -6.14990000      12.07234000      13.88757288      -0.00393171      -0.20403534       0.00228323
C        2.45998000       1.42027000      13.88758075       0.17971128       0.10451750       0.00224781
C        1.22995000       3.55073000      13.87506066       0.00418995       0.18288901       0.00689136
C        0.00000000       5.68107000      13.87398514       0.00917241       0.00493067      -0.00517451
C       -1.23002000       7.81154000      13.87469143      -0.00159507      -0.00036167       0.00304862
C       -2.46005000       9.94200000      13.87398314       0.01050490       0.00282473      -0.00516482
C       -3.69000000      12.07234000      13.87505690       0.16179994      -0.09059489       0.00689720
C        4.92002000       1.42027000      13.87342153      -0.00844645       0.02413526       0.00846678
C        3.69000000       3.55073000      13.87341982       0.01603811      -0.01782937       0.00845722
C        2.46005000       5.68107000      13.87398758      -0.01089296       0.00537761      -0.00516776
C        1.23002000       7.81154000      13.87492036      -0.00285635       0.00026784       0.00262767
C        0.00000000       9.94200000      13.87491721      -0.00164649      -0.00136336       0.00262960
C       -1.22995000      12.07234000      13.87398769      -0.00460754      -0.00560547      -0.00516738
C        7.38007000       1.42027000      13.87466393       0.00587936      -0.00726316      -0.00455943
C        6.15005000       3.55073000      13.87464841       0.00554498       0.00178480      -0.00502159
C        4.92010000       5.68107000      13.87466269      -0.00668471       0.01480550      -0.00455486
C        3.69007000       7.81154000      13.87469404      -0.00086216      -0.00043709       0.00304554
C        2.46005000       9.94200000      13.87491656      -0.00011749      -0.00173354       0.00262716
C        1.23010000      12.07234000      13.87469298      -0.00394282       0.00532766       0.00304907
C        9.83998000       1.42027000      13.87466174      -0.00833963      -0.00718661      -0.00456218
C        8.60995000       3.55073000      13.87502755       0.00426825      -0.00141262      -0.00190911
C        7.38000000       5.68107000      13.87502988       0.00217193       0.00173295      -0.00190947
C        6.14998000       7.81154000      13.87466198      -0.01108030      -0.00266863      -0.00455088
C        4.91995000       9.94200000      13.87398133      -0.00200321       0.00281223      -0.00515188
C        3.69000000      12.07234000      13.87398352       0.00291160      -0.00604744      -0.00515569
C       12.30002000       1.42027000      13.87342207       0.00280229       0.02414927       0.00848183
C       11.07000000       3.55073000      13.87464933      -0.00730904       0.00215634      -0.00502951
C        9.84005000       5.68107000      13.87503321      -0.00389163       0.00219047      -0.00191408
C        8.61002000       7.81154000      13.87465300      -0.00284554      -0.00627242      -0.00502039
C        7.38000000       9.94200000      13.87341639       0.02164890      -0.00833237       0.00847053
C        6.15005000      12.07234000      13.87506503      -0.16350249      -0.09018098       0.00688560
C        0.00000000       0.00000000      10.11241251      -0.17537153      -0.10486633      -0.00226248
C       -1.23002000       2.13047000      10.12493140      -0.15767923       0.08977337      -0.00690755
C       12.30002000       4.26080000      10.12601549      -0.00547168      -0.00306940       0.00514556
C       -3.69000000       6.39127000      10.12530499       0.00605892      -0.00035771      -0.00304686
C       -4.92002000       8.52173000      10.12601227      -0.00483993      -0.00511239       0.00516905
C       -6.14998000      10.65207000      10.12494503       0.00074127      -0.18305219      -0.00691543
C        2.46005000       0.00000000      10.11242857       0.17713794      -0.10429733      -0.00230086
C        1.23002000       2.13047000      10.11241951      -0.00115631       0.20370899      -0.00226525
C        0.00007000       4.26080000      10.12658438       0.01812266       0.00893723      -0.00849419
C       -1.22995000       6.39127000      10.12533835      -0.01374271       0.00244124       0.00454998
C       -2.45998000       8.52173000      10.12533931      -0.00393883      -0.01447118       0.00454933
C       -3.68993000      10.65207000      10.12658614       0.01251587       0.01851028      -0.00846279
C        4.91995000       0.00000000      10.12658043      -0.00177357      -0.02370718      -0.00847366
C        3.68993000       2.13047000      10.12493581       0.16393898       0.09015378      -0.00689901
C        2.45998000       4.26080000      10.12658393      -0.02132519       0.00879891      -0.00849784
C        1.22995000       6.39127000      10.12534827       0.00387016       0.00627206       0.00501945
C       -0.00007000       8.52173000      10.12496814       0.00428258      -0.00153132       0.00191324
C       -1.23002000      10.65207000      10.12535141       0.00760781      -0.00156751       0.00501567
C        7.38000000       0.00000000      10.12533476       0.01281154       0.00691740       0.00455518
C        6.14998000       2.13047000      10.12601304       0.00143604       0.00514524       0.00514893
C        4.92002000       4.26080000      10.12601479       0.00704778      -0.00306889       0.00515189
C        3.69000000       6.39127000      10.12533488       0.01555270       0.00195468       0.00455767
C        2.45998000       8.52173000      10.12496708       0.00217671      -0.00192267       0.00191121
C        1.23002000      10.65207000      10.12496917       0.00078712       0.00129108       0.00191000
C        9.84005000       0.00000000      10.12533804      -0.01097860       0.00740368       0.00455912
C        8.61002000       2.13047000      10.12530930      -0.00118813      -0.00571055      -0.00304704
C        7.38007000       4.26080000      10.12508577      -0.00520990       0.00196709      -0.00262641
C        6.15005000       6.39127000      10.12530829      -0.00425583       0.00013264      -0.00304785
C        4.92002000       8.52173000      10.12533929       0.00155814      -0.01446964       0.00455744
C        3.69007000      10.65207000      10.12535354      -0.01086218      -0.00141248       0.00502327
C       12.29995000       0.00000000      10.12658067       0.00946680      -0.02368996      -0.00849078
C       11.06993000       2.13047000      10.12601511       0.00498433       0.00554983       0.00515009
C        9.83998000       4.26080000      10.12508395       0.00194509       0.00181024      -0.00263007
C        8.60995000       6.39127000      10.12508037       0.00387550      -0.00027383      -0.00262975
C        7.37993000       8.52173000      10.12601291       0.01127939      -0.00471871       0.00517258
C        6.14998000      10.65207000      10.12658363      -0.01573109       0.01840868      -0.00847132
C        0.00007000       1.42027000      10.11241025      -0.18198497       0.10436130      -0.00222699
C       -1.22995000       3.55073000      10.12658033      -0.01781256      -0.01816803      -0.00846820
C       -2.45990000       5.68107000      10.12533716      -0.00119233       0.01480265       0.00456173
C       -3.68993000       7.81154000      10.12533572       0.00862427      -0.00274844       0.00455746
C       -4.91995000       9.94200000      10.12658567      -0.02339592      -0.00869093      -0.00846652
C       -6.14990000      12.07234000      10.11242712      -0.00393171      -0.20403534      -0.00228323
C        2.45998000       1.42027000      10.11241925       0.17971128       0.10451750      -0.00224781
C        1.22995000       3.55073000      10.12493934       0.00418995       0.18288901      -0.00689136
C        0.00000000       5.68107000      10.12601486       0.00917241       0.00493067       0.00517451
C       -1.23002000       7.81154000      10.12530857      -0.00159507      -0.00036167      -0.00304862
C       -2.46005000       9.94200000      10.12601686       0.01050490       0.00282473       0.00516482
C       -3.69000000      12.07234000      10.12494310       0.16179994      -0.09059489      -0.00689720
C        4.92002000       1.42027000      10.12657847      -0.00844645       0.02413526      -0.00846678
C        3.69000000       3.55073000      10.12658018       0.01603811      -0.01782937      -0.00845722
C        2.46005000       5.68107000      10.12601242      -0.01089296       0.00537761       0.00516776
C        1.23002000       7.81154000      10.12507964      -0.00285635       0.00026784      -0.00262767
C        0.00000000       9.94200000      10.12508279      -0.00164649      -0.00136336      -0.00262960
C       -1.22995000      12.07234000      10.12601231      -0.00460754      -0.00560547       0.00516738
C        7.38007000       1.42027000      10.12533607       0.00587936      -0.00726316       0.00455943
C        6.15005000       3.55073000      10.12535159       0.00554498       0.00178480       0.00502159
C        4.92010000       5.68107000      10.12533731      -0.00668471       0.01480550       0.00455486
C        3.69007000       7.81154000      10.12530596      -0.00086216      -0.00043709      -0.00304554
C        2.46005000       9.94200000      10.12508344      -0.00011749      -0.00173354      -0.00262716
C        1.23010000      12.07234000      10.12530702      -0.00394282       0.00532766      -0.00304907
C        9.83998000       1.42027000      10.12533826      -0.00833963      -0.00718661       0.00456218
C        8.60995000       3.55073000      10.12497245       0.00426825      -0.00141262       0.00190911
C        7.38000000       5.68107000      10.12497012       0.00217193       0.00173295       0.00190947
C        6.14998000       7.81154000      10.12533802      -0.01108030      -0.00266863       0.00455088
C        4.91995000       9.94200000      10.12601867      -0.00200321       0.00281223       0.00515188
C        3.69000000      12.07234000      10.12601648       0.00291160      -0.00604744       0.00515569
C       12.30002000       1.42027000      10.12657793       0.00280229       0.02414927      -0.00848183
C       11.07000000       3.55073000      10.12535067      -0.00730904       0.00215634       0.00502951
C        9.84005000       5.68107000      10.12496679      -0.00389163       0.00219047       0.00191408
C        8.61002000       7.81154000      10.12534700      -0.00284554      -0.00627242       0.00502039
C        7.38000000       9.94200000      10.12658361       0.02164890      -0.00833237      -0.00847053
C        6.15005000      12.07234000      10.12493497      -0.16350249      -0.09018098      -0.00688560
Li       1.22997800       0.71012423      12.00000000       0.00000117      -0.00002119      -0.00000000
