149
Lattice="14.963600159 0.0 0.0 -7.481800079 12.958857869 0.0 0.0 0.0 24.0" Properties=species:S:1:pos:R:3:forces:R:3 energy=-1377.0203323085989 free_energy=-1377.0203323085989 stress="-0.06766743384648087 3.646329615074937e-07 -2.8252347601317177e-19 3.646329615074937e-07 -0.06766812887720193 4.625895294194009e-18 -2.8252347601317177e-19 4.625895294194009e-18 -3.265468434303458e-05" pbc="T T T"
C        0.00000000       0.00000000      13.90689144      -0.08751317      -0.18519093      -0.00258468
C       -5.05523000       9.45647000      13.86719864       0.00797976       0.00223664       0.00864585
C       -5.25746000      11.90815000      13.88773061       0.10580736      -0.15305542      -0.00246113
C       -2.62881000       5.95408000      13.86467572      -0.00238338       0.00462256       0.00766763
C       -2.83089000       8.40576000      13.86220757      -0.00526488       0.00164678      -0.00087441
C       -3.03312000      10.85745000      13.86827589      -0.00546673      -0.00682163       0.00063422
C       -0.20223000       2.45169000      13.90689399      -0.11678790       0.16811723      -0.00259139
C       -0.40447000       4.90337000      13.87880885      -0.02218944      -0.00512459      -0.00007187
C       -0.60670000       7.35506000      13.86409037       0.00731342       0.00881650       0.00137455
C       -0.80893000       9.80675000      13.86286352       0.00282545      -0.00019738       0.00041936
C       -1.01102000      12.25843000      13.86408911       0.00292185      -0.01154714       0.00136258
C        2.02211000       1.40098000      13.90689109       0.20398409       0.01692565      -0.00258845
C        1.81987000       3.85267000      13.88773735       0.07966253       0.16834857      -0.00247254
C        1.61764000       6.30435000      13.86828227       0.00822593      -0.00031015       0.00065207
C        1.41541000       8.75604000      13.86286968       0.00086414      -0.00156292       0.00042894
C        1.21325000      11.20760000      13.86286793       0.00042307       0.00152137       0.00042939
C        4.24645000       0.35028000      13.87880490       0.00647419       0.02193172      -0.00008071
C        4.04421000       2.80196000      13.87894416       0.00974474      -0.02030640       0.00262845
C        3.84198000       5.25365000      13.86720566      -0.00385238       0.00411706       0.00865301
C        3.63982000       7.70521000      13.86221718      -0.00118276       0.00095760      -0.00086252
C        3.43759000      10.15689000      13.86409597      -0.01142404       0.00161709       0.00137797
C        3.23535000      12.60858000      13.86828422      -0.00338508       0.00750241       0.00064991
C        6.26855000       1.75126000      13.86467474       0.00933179      -0.00018269       0.00767081
C        6.06639000       4.20282000      13.86481511       0.00239614       0.01406952      -0.00325907
C        5.86416000       6.65450000      13.86271552      -0.00019382      -0.00216571      -0.00387651
C        5.66193000       9.10619000      13.86468010      -0.00346513      -0.00741613       0.00767082
C        5.45969000      11.55788000      13.87881071       0.01625247      -0.01710306      -0.00007682
C        8.49282000       0.70043000      13.86221315       0.00359972      -0.00109594      -0.00085604
C        8.29073000       3.15211000      13.86270997      -0.00172682       0.00085223      -0.00386407
C        8.08850000       5.60380000      13.86288544      -0.00081734       0.00014233      -0.00451291
C        7.88627000       8.05549000      13.86481641       0.00823923      -0.00827882      -0.00326601
C        7.68403000      10.50717000      13.87894232      -0.02295604       0.00196983       0.00264125
C       10.51492000       2.10141000      13.86720432      -0.00146036      -0.00822001       0.00866446
C       10.31269000       4.55309000      13.86481514      -0.00865788      -0.00446130      -0.00325407
C       10.11061000       7.00478000      13.86270891      -0.00221768       0.00195082      -0.00388167
C       12.73926000       1.05070000      13.88773657      -0.18566082      -0.01498655      -0.00246211
C       12.53703000       3.50239000      13.87894481       0.01286220       0.01914359       0.00264251
C       -5.86409000      10.62393000      13.87880564       0.02258362       0.00545860      -0.00006627
C       -3.43751000       7.12154000      13.86220954      -0.00167139      -0.00038380      -0.00084050
C       -3.63975000       9.57323000      13.86466872       0.00430124      -0.00628657       0.00769639
C       -3.84198000      12.02491000      13.87893714      -0.01296526      -0.01878483       0.00264997
C       -1.01109000       3.61915000      13.88773615      -0.10591892       0.15318667      -0.00245602
C       -1.21332000       6.07084000      13.86720046      -0.00748149      -0.00284963       0.00866105
C       -1.41556000       8.52252000      13.86270191       0.00622068      -0.00067702      -0.00385678
C       -1.61764000      10.97421000      13.86480528       0.00832675       0.00446036      -0.00323954
C        1.41548000       0.11676000      13.90688929       0.11687103      -0.16847862      -0.00257732
C        1.21325000       2.56845000      13.90689290       0.08760480       0.18495434      -0.00256921
C        1.01102000       5.02013000      13.87894313       0.02264383      -0.00148793       0.00264863
C        0.80878000       7.47182000      13.86481155      -0.00854853       0.00765216      -0.00325404
C        0.60655000       9.92350000      13.86287741       0.00091354      -0.00293876      -0.00450460
C        0.40439000      12.37506000      13.86270541       0.00011458       0.00063267      -0.00386242
C        3.43759000       1.51774000      13.88773286       0.18569590       0.01534818      -0.00245030
C        3.23535000       3.96943000      13.87881124      -0.01584762       0.01672454      -0.00006550
C        3.03312000       6.42111000      13.86467853       0.00380529       0.00448221       0.00768363
C        2.83096000       8.87267000      13.86271072      -0.00149294       0.00399934      -0.00386269
C        2.62873000      11.32436000      13.86481342      -0.00247165      -0.01173147      -0.00325574
C        5.66193000       0.46704000      13.86719745       0.00204177       0.00819354       0.00867092
C        5.45969000       2.91872000      13.86828246       0.00401738      -0.01025618       0.00065626
C        5.25754000       5.37028000      13.86409803       0.00907589       0.00010126       0.00138929
C        5.05530000       7.82197000      13.86221849       0.00098149       0.00142754      -0.00084844
C        4.85307000      10.27365000      13.86720430       0.00613029      -0.00546376       0.00866708
C        4.65084000      12.72534000      13.87894505      -0.01029557       0.02068928       0.00264069
C        7.68411000       1.86789000      13.86221326      -0.00686410       0.00150304      -0.00085420
C        7.48187000       4.31958000      13.86287241      -0.00056245       0.00088605       0.00043320
C        7.27964000       6.77126000      13.86287581       0.00119837       0.00030681       0.00043606
C        7.07741000       9.22295000      13.86828424      -0.00832713       0.00053797       0.00065785
C        6.87518000      11.67464000      13.88773461      -0.08000956      -0.16868706      -0.00245805
C        9.90830000       0.81719000      13.86467820      -0.00736514      -0.00102151       0.00767046
C        9.70606000       3.26887000      13.86409690      -0.00007903       0.01113215       0.00136492
C        9.50398000       5.72056000      13.86287237      -0.00212572       0.00049605       0.00043521
C        9.30175000       8.17224000      13.86409314      -0.00702331      -0.00918795       0.00139113
C       11.93040000       2.21817000      13.87881122      -0.00656318      -0.02247104      -0.00007210
C       11.72817000       4.66985000      13.86828398       0.00484773       0.00656643       0.00064670
C       14.15474000       1.16746000      13.90689224      -0.20406554      -0.01649356      -0.00256899
C        0.00000000       0.00000000      10.09310856      -0.08751317      -0.18519093       0.00258468
C       -5.05523000       9.45647000      10.13280136       0.00797976       0.00223664      -0.00864585
C       -5.25746000      11.90815000      10.11226939       0.10580736      -0.15305542       0.00246113
C       -2.62881000       5.95408000      10.13532428      -0.00238338       0.00462256      -0.00766763
C       -2.83089000       8.40576000      10.13779243      -0.00526488       0.00164678       0.00087441
C       -3.03312000      10.85745000      10.13172411      -0.00546673      -0.00682163      -0.00063422
C       -0.20223000       2.45169000      10.09310601      -0.11678790       0.16811723       0.00259139
C       -0.40447000       4.90337000      10.12119115      -0.02218944      -0.00512459       0.00007187
C       -0.60670000       7.35506000      10.13590963       0.00731342       0.00881650      -0.00137455
C       -0.80893000       9.80675000      10.13713648       0.00282545      -0.00019738      -0.00041936
C       -1.01102000      12.25843000      10.13591089       0.00292185      -0.01154714      -0.00136258
C        2.02211000       1.40098000      10.09310891       0.20398409       0.01692565       0.00258845
C        1.81987000       3.85267000      10.11226265       0.07966253       0.16834857       0.00247254
C        1.61764000       6.30435000      10.13171773       0.00822593      -0.00031015      -0.00065207
C        1.41541000       8.75604000      10.13713032       0.00086414      -0.00156292      -0.00042894
C        1.21325000      11.20760000      10.13713207       0.00042307       0.00152137      -0.00042939
C        4.24645000       0.35028000      10.12119510       0.00647419       0.02193172       0.00008071
C        4.04421000       2.80196000      10.12105584       0.00974474      -0.02030640      -0.00262845
C        3.84198000       5.25365000      10.13279434      -0.00385238       0.00411706      -0.00865301
C        3.63982000       7.70521000      10.13778282      -0.00118276       0.00095760       0.00086252
C        3.43759000      10.15689000      10.13590403      -0.01142404       0.00161709      -0.00137797
C        3.23535000      12.60858000      10.13171578      -0.00338508       0.00750241      -0.00064991
C        6.26855000       1.75126000      10.13532526       0.00933179      -0.00018269      -0.00767081
C        6.06639000       4.20282000      10.13518489       0.00239614       0.01406952       0.00325907
C        5.86416000       6.65450000      10.13728448      -0.00019382      -0.00216571       0.00387651
C        5.66193000       9.10619000      10.13531990      -0.00346513      -0.00741613      -0.00767082
C        5.45969000      11.55788000      10.12118929       0.01625247      -0.01710306       0.00007682
C        8.49282000       0.70043000      10.13778685       0.00359972      -0.00109594       0.00085604
C        8.29073000       3.15211000      10.13729003      -0.00172682       0.00085223       0.00386407
C        8.08850000       5.60380000      10.13711456      -0.00081734       0.00014233       0.00451291
C        7.88627000       8.05549000      10.13518359       0.00823923      -0.00827882       0.00326601
C        7.68403000      10.50717000      10.12105768      -0.02295604       0.00196983      -0.00264125
C       10.51492000       2.10141000      10.13279568      -0.00146036      -0.00822001      -0.00866446
C       10.31269000       4.55309000      10.13518486      -0.00865788      -0.00446130       0.00325407
C       10.11061000       7.00478000      10.13729109      -0.00221768       0.00195082       0.00388167
C       12.73926000       1.05070000      10.11226343      -0.18566082      -0.01498655       0.00246211
C       12.53703000       3.50239000      10.12105519       0.01286220       0.01914359      -0.00264251
C       -5.86409000      10.62393000      10.12119436       0.02258362       0.00545860       0.00006627
C       -3.43751000       7.12154000      10.13779046      -0.00167139      -0.00038380       0.00084050
C       -3.63975000       9.57323000      10.13533128       0.00430124      -0.00628657      -0.00769639
C       -3.84198000      12.02491000      10.12106286      -0.01296526      -0.01878483      -0.00264997
C       -1.01109000       3.61915000      10.11226385      -0.10591892       0.15318667       0.00245602
C       -1.21332000       6.07084000      10.13279954      -0.00748149      -0.00284963      -0.00866105
C       -1.41556000       8.52252000      10.13729809       0.00622068      -0.00067702       0.00385678
C       -1.61764000      10.97421000      10.13519472       0.00832675       0.00446036       0.00323954
C        1.41548000       0.11676000      10.09311071       0.11687103      -0.16847862       0.00257732
C        1.21325000       2.56845000      10.09310710       0.08760480       0.18495434       0.00256921
C        1.01102000       5.02013000      10.12105687       0.02264383      -0.00148793      -0.00264863
C        0.80878000       7.47182000      10.13518845      -0.00854853       0.00765216       0.00325404
C        0.60655000       9.92350000      10.13712259       0.00091354      -0.00293876       0.00450460
C        0.40439000      12.37506000      10.13729459       0.00011458       0.00063267       0.00386242
C        3.43759000       1.51774000      10.11226714       0.18569590       0.01534818       0.00245030
C        3.23535000       3.96943000      10.12118876      -0.01584762       0.01672454       0.00006550
C        3.03312000       6.42111000      10.13532147       0.00380529       0.00448221      -0.00768363
C        2.83096000       8.87267000      10.13728928      -0.00149294       0.00399934       0.00386269
C        2.62873000      11.32436000      10.13518658      -0.00247165      -0.01173147       0.00325574
C        5.66193000       0.46704000      10.13280255       0.00204177       0.00819354      -0.00867092
C        5.45969000       2.91872000      10.13171754       0.00401738      -0.01025618      -0.00065626
C        5.25754000       5.37028000      10.13590197       0.00907589       0.00010126      -0.00138929
C        5.05530000       7.82197000      10.13778151       0.00098149       0.00142754       0.00084844
C        4.85307000      10.27365000      10.13279570       0.00613029      -0.00546376      -0.00866708
C        4.65084000      12.72534000      10.12105495      -0.01029557       0.02068928      -0.00264069
C        7.68411000       1.86789000      10.13778674      -0.00686410       0.00150304       0.00085420
C        7.48187000       4.31958000      10.13712759      -0.00056245       0.00088605      -0.00043320
C        7.27964000       6.77126000      10.13712419       0.00119837       0.00030681      -0.00043606
C        7.07741000       9.22295000      10.13171576      -0.00832713       0.00053797      -0.00065785
C        6.87518000      11.67464000      10.11226539      -0.08000956      -0.16868706       0.00245805
C        9.90830000       0.81719000      10.13532180      -0.00736514      -0.00102151      -0.00767046
C        9.70606000       3.26887000      10.13590310      -0.00007903       0.01113215      -0.00136492
C        9.50398000       5.72056000      10.13712763      -0.00212572       0.00049605      -0.00043521
C        9.30175000       8.17224000      10.13590686      -0.00702331      -0.00918795      -0.00139113
C       11.93040000       2.21817000      10.12118878      -0.00656318      -0.02247104       0.00007210
C       11.72817000       4.66985000      10.13171602       0.00484773       0.00656643      -0.00064670
C       14.15474000       1.16746000      10.09310776      -0.20406554      -0.01649356       0.00256899
Li       0.60662252       1.28423181      12.00000000       0.00000383      -0.00000452      -0.00000000
