149
Lattice="14.963600159 0.0 0.0 -7.481800079 12.958857869 0.0 0.0 0.0 24.0" Properties=species:S:1:pos:R:3:forces:R:3 energy=-1377.0771874893721 free_energy=-1377.0771874893721 stress="-0.06663564249832464 3.749994240319583e-07 1.0623166916608773e-08 3.749994240319583e-07 -0.0666363404225879 -1.6492925412354198e-09 1.0623166916608773e-08 -1.6492925412354198e-09 -7.112737858871654e-05" pbc="T T T"
C        0.00000000       0.00000000      13.94358674      -0.12260250      -0.25968040       0.00005488
C       -5.05523000       9.45647000      13.79291278       0.00242001       0.01131684       0.00151334
C       -5.25746000      11.90815000      13.87934324       0.11911237      -0.17151053       0.00238314
C       -2.62881000       5.95408000      13.77883044      -0.00245513       0.00484985      -0.00069437
C       -2.83089000       8.40576000      13.75939190      -0.00525041       0.00278655       0.00296961
C       -3.03312000      10.85745000      13.79180217      -0.01170047       0.00247993       0.00177768
C       -0.20223000       2.45169000      13.94358957      -0.16375651       0.23574020       0.00005479
C       -0.40447000       4.90337000      13.84061448      -0.03721195       0.00228481       0.00306351
C       -0.60670000       7.35506000      13.76670664       0.00839114       0.00281997      -0.00129245
C       -0.80893000       9.80675000      13.74979419       0.00139952       0.00014293       0.00169242
C       -1.01102000      12.25843000      13.76670426      -0.00281463      -0.00948379      -0.00129351
C        2.02211000       1.40098000      13.94358474       0.28603784       0.02378657       0.00005287
C        1.81987000       3.85267000      13.87934895       0.08899694       0.18909285       0.00238700
C        1.61764000       6.30435000      13.79181300       0.00327718      -0.01034560       0.00177982
C        1.41541000       8.75604000      13.74980757       0.00129382      -0.00298690       0.00169289
C        1.21325000      11.20760000      13.74980373       0.00145116       0.00260296       0.00169388
C        4.24645000       0.35028000      13.84060510       0.02039414       0.03123927       0.00306060
C        4.04421000       2.80196000      13.84082030       0.02580603      -0.02719418       0.00323871
C        3.84198000       5.25365000      13.79292481      -0.00891868      -0.00524522       0.00151516
C        3.63982000       7.70521000      13.75940969      -0.00218921       0.00044644       0.00297230
C        3.43759000      10.15689000      13.76671827      -0.00677300       0.00554366      -0.00129199
C        3.23535000      12.60858000      13.79181221       0.00778703       0.00825001       0.00178210
C        6.26855000       1.75126000      13.77882291       0.00958972      -0.00023424      -0.00069387
C        6.06639000       4.20282000      13.76682416      -0.00101698       0.01074316      -0.00059215
C        5.86416000       6.65450000      13.75516968      -0.00137821      -0.00230682       0.00198399
C        5.66193000       9.10619000      13.77883962      -0.00363086      -0.00760453      -0.00069335
C        5.45969000      11.55788000      13.84061652       0.01735334      -0.03381418       0.00306506
C        8.49282000       0.70043000      13.75940057       0.00457289      -0.00171095       0.00296977
C        8.29073000       3.15211000      13.75515404      -0.00104492      -0.00011116       0.00198354
C        8.08850000       5.60380000      13.74673750      -0.00082536       0.00014058       0.00364650
C        7.88627000       8.05549000      13.76683004       0.00704930      -0.00365164      -0.00059208
C        7.68403000      10.50717000      13.84082461      -0.03695068      -0.00849373       0.00323767
C       10.51492000       2.10141000      13.79292371       0.00918235      -0.00794791       0.00151505
C       10.31269000       4.55309000      13.76682996      -0.00404331      -0.00575395      -0.00059167
C       10.11061000       7.00478000      13.75515385      -0.00174671       0.00304900       0.00198177
C       12.73926000       1.05070000      13.87934935      -0.20829631      -0.01727689       0.00238814
C       12.53703000       3.50239000      13.84082691       0.01079497       0.03650047       0.00323911
C       -5.86409000      10.62393000      13.84107555       0.03658707       0.00510333       0.00204713
C       -3.43751000       7.12154000      13.75983061      -0.00055013      -0.00263725       0.00159730
C       -3.63975000       9.57323000      13.77919912       0.00463029      -0.00673779      -0.00162905
C       -3.84198000      12.02491000      13.84068629      -0.01722846      -0.03273419       0.00236447
C       -1.01109000       3.61915000      13.87960679      -0.11391480       0.16471686       0.00219365
C       -1.21332000       6.07084000      13.79252301       0.00159979      -0.01646335       0.00036096
C       -1.41556000       8.52252000      13.75434498       0.00664956      -0.00255728       0.00138675
C       -1.61764000      10.97421000      13.76602642       0.00261190       0.00472692      -0.00016339
C        1.41548000       0.11676000      13.94382340       0.15959298      -0.22993802       0.00115205
C        1.21325000       2.56845000      13.94382721       0.11947237       0.25267132       0.00115345
C        1.01102000       5.02013000      13.84069465       0.03685225       0.00179436       0.00236396
C        0.80878000       7.47182000      13.76603422      -0.00592483       0.00257919      -0.00016335
C        0.60655000       9.92350000      13.74545397       0.00090842      -0.00295453       0.00233287
C        0.40439000      12.37506000      13.75435154      -0.00170856       0.00123412       0.00138937
C        3.43759000       1.51774000      13.87959877       0.19967432       0.01650530       0.00219201
C        3.23535000       3.96943000      13.84107940      -0.02254175       0.02902112       0.00204711
C        3.03312000       6.42111000      13.77921629       0.00403053       0.00497169      -0.00163110
C        2.83096000       8.87267000      13.75436362      -0.00008184       0.00529676       0.00138723
C        2.62873000      11.32436000      13.76603711       0.00060652      -0.00692290      -0.00016440
C        5.66193000       0.46704000      13.79251424      -0.01429083       0.00713896       0.00035878
C        5.45969000       2.91872000      13.79231868      -0.01247788      -0.01180515       0.00157346
C        5.25754000       5.37028000      13.76788505       0.00355130      -0.00282003      -0.00091276
C        5.05530000       7.82197000      13.75985069       0.00237461       0.00353752       0.00159466
C        4.85307000      10.27365000      13.79253115       0.01338098       0.00920654       0.00035655
C        4.65084000      12.72534000      13.84069514      -0.02025208       0.03135839       0.00236492
C        7.68411000       1.86789000      13.75983614      -0.00940937       0.00166217       0.00159751
C        7.48187000       4.31958000      13.75115642      -0.00200204       0.00002063       0.00159353
C        7.27964000       6.77126000      13.75116638       0.00117624       0.00199242       0.00159154
C        7.07741000       9.22295000      13.79232846      -0.00140075       0.01558641       0.00157378
C        6.87518000      11.67464000      13.87960440      -0.08599742      -0.18137638       0.00219112
C        9.90830000       0.81719000      13.77921018      -0.00791905      -0.00107886      -0.00162595
C        9.70606000       3.26887000      13.76788036       0.00523832       0.00782539      -0.00090745
C        9.50398000       5.72056000      13.75115752      -0.00065562      -0.00031244       0.00159318
C        9.30175000       8.17224000      13.76787367      -0.00679742      -0.00294982      -0.00091234
C       11.93040000       2.21817000      13.84108235      -0.01386807      -0.03441755       0.00205077
C       11.72817000       4.66985000      13.79232633       0.01441800      -0.00695648       0.00157901
C       14.15474000       1.16746000      13.94382770      -0.27864474      -0.02275118       0.00115315
C        0.00000000       0.00000000      10.01199984      -0.12992330      -0.27584844      -0.00074092
C       -5.05523000       9.45647000      10.20817762       0.00376621      -0.00849661      -0.00843140
C       -5.25746000      11.90815000      10.08798690       0.07868568      -0.11311576      -0.00400211
C       -2.62881000       5.95408000      10.22867934       0.01342199      -0.02238297      -0.00677905
C       -2.83089000       8.40576000      10.25419983      -0.00294337       0.00137961      -0.00135376
C       -3.03312000      10.85745000      10.20798079       0.00732401      -0.00804120      -0.00519532
C       -0.20223000       2.45169000      10.01200041      -0.17385254       0.25020462      -0.00074448
C       -0.40447000       4.90337000      10.14386770       0.00540423      -0.00072913      -0.00690636
C       -0.60670000       7.35506000      10.24417714       0.00727485      -0.01251815      -0.00175991
C       -0.80893000       9.80675000      10.26790972      -0.00142177       0.00027710       0.00189015
C       -1.01102000      12.25843000      10.24417883      -0.01562634       0.00199020      -0.00176383
C        2.02211000       1.40098000      10.01199249       0.30340915       0.02524951      -0.00074340
C        1.81987000       3.85267000      10.08798660       0.05909954       0.12482718      -0.00399626
C        1.61764000       6.30435000      10.20797792       0.00320386       0.01118503      -0.00518159
C        1.41541000       8.75604000      10.26789823       0.00259871      -0.00778545       0.00190623
C        1.21325000      11.20760000      10.26790742       0.00147011       0.00529253       0.00189757
C        4.24645000       0.35028000      10.14385920      -0.00384157      -0.00403194      -0.00691215
C        4.04421000       2.80196000      10.14432709      -0.00454366       0.00446535      -0.00610076
C        3.84198000       5.25365000      10.20816585       0.00560428       0.00419985      -0.00841040
C        3.63982000       7.70521000      10.25419289      -0.00161616       0.00102240      -0.00132689
C        3.43759000      10.15689000      10.24417544       0.00780633       0.01175332      -0.00174342
C        3.23535000      12.60858000      10.20799070      -0.01098414      -0.00257390      -0.00518833
C        6.26855000       1.75126000      10.22868137      -0.02524755      -0.00322131      -0.00677954
C        6.06639000       4.20282000      10.24695611      -0.01609186      -0.00260859       0.00115183
C        5.86416000       6.65450000      10.26315594      -0.00331163      -0.00231122       0.00096523
C        5.66193000       9.10619000      10.22867728       0.01220774       0.02220554      -0.00675621
C        5.45969000      11.55788000      10.14386673      -0.00152118       0.00483531      -0.00689430
C        8.49282000       0.70043000      10.25420791       0.00157658       0.00130091      -0.00134724
C        8.29073000       3.15211000      10.26317323       0.00152196      -0.00065501       0.00094684
C        8.08850000       5.60380000      10.27743806      -0.00012840       0.00043090       0.00076313
C        7.88627000       8.05549000      10.24695905       0.00326082       0.01399462       0.00115964
C        7.68403000      10.50717000      10.14433076       0.00575108       0.00196358      -0.00609427
C       10.51492000       2.10141000      10.20818003      -0.00790261       0.00065746      -0.00843142
C       10.31269000       4.55309000      10.24696079       0.01472961      -0.00984686       0.00113236
C       10.11061000       7.00478000      10.26316193      -0.00276703       0.00578916       0.00094984
C       12.73926000       1.05070000      10.08799388      -0.13729427      -0.01111291      -0.00400178
C       12.53703000       3.50239000      10.14433563      -0.00140030      -0.00612419      -0.00610509
C       -6.67294000      11.79139000      10.06790155       0.02952947      -0.17069523      -0.00833385
C       -4.24637000       8.28900000      10.24744728      -0.01008420       0.01630357       0.00380031
C       -4.44860000      10.74069000      10.16762725      -0.01813546       0.02664738       0.00179080
C       -1.81995000       4.78661000      10.16994428      -0.02076166       0.02984428       0.00118685
C       -2.02218000       7.23830000      10.24749389       0.00390371      -0.00458527       0.00362992
C       -2.22426000       9.68999000      10.24966035      -0.01445811       0.01378415       0.00290810
C       -2.42650000      12.14167000      10.20031752      -0.00876351       0.00625402       0.00617954
C        0.60662000       1.28422000       9.96236021       0.00027657       0.00014699      -0.00164716
C        0.40439000       3.73591000      10.06779156       0.00152571       0.17306216      -0.00846377
C        0.20216000       6.18760000      10.20031922      -0.00124636      -0.01053085       0.00617811
C       -0.00007000       8.63928000      10.26752618      -0.00106758      -0.00942662      -0.00202890
C       -0.20231000      11.09097000      10.26753254      -0.00261805       0.00398278      -0.00202501
C        2.83096000       0.23352000      10.06778524       0.14928947      -0.08793649      -0.00846340
C        2.62873000       2.68520000      10.06789704       0.13284291       0.11139144      -0.00833414
C        2.42650000       5.13689000      10.16762254      -0.01411726      -0.02898350       0.00177826
C        2.22426000       7.58858000      10.24965303      -0.00500342      -0.01773100       0.00289159
C        2.02211000      10.04013000      10.26752463       0.00835498       0.00705457      -0.00203381
C        1.81987000      12.49182000      10.24966911       0.01731191       0.00112928       0.00290496
C        4.85307000       1.63450000      10.16993597       0.03570309       0.00351584       0.00119149
C        4.65084000       4.08619000      10.20104853      -0.00378426      -0.00976964       0.00625889
C        4.44868000       6.53774000      10.24744474      -0.00894423      -0.01312786       0.00378533
C        4.24645000       8.98943000      10.24749049       0.00147488       0.00329030       0.00361566
C        4.04421000      11.44112000      10.20032547       0.00919357       0.00380212       0.00617259
C        7.07741000       0.58380000      10.24749734      -0.00599359      -0.00208581       0.00363270
C        6.87525000       3.03535000      10.25109141      -0.00294712       0.00202437       0.00314006
C        6.67302000       5.48704000      10.26898006      -0.00602629      -0.00624790      -0.00182599
C        6.47078000       7.93873000      10.25108207      -0.00003682       0.00203899       0.00312509
C        6.26855000      10.39041000      10.16993952      -0.01513647      -0.03227117       0.00117799
C        6.06632000      12.84210000      10.06779379      -0.15056039      -0.08536937      -0.00846380
C        9.09944000       1.98465000      10.24745447       0.02119692      -0.00018176       0.00380063
C        8.89736000       4.43634000      10.26899316       0.00415030      -0.00305598      -0.00181065
C        8.69512000       6.88802000      10.26898288      -0.00276301       0.00906675      -0.00182596
C        8.49289000       9.33971000      10.20105507      -0.00413707       0.00870539       0.00626408
C       11.32378000       0.93394000      10.16763420       0.03211632       0.00267439       0.00179385
C       11.12155000       3.38563000      10.20105592       0.00988910      -0.00122386       0.00627432
C       10.91931000       5.83732000      10.25108169       0.00505128      -0.00247052       0.00314491
C       13.34589000       2.33493000      10.06790622      -0.16291769       0.05935351      -0.00832923
Li       0.60662539       1.28422782      12.11617694      -0.00000040       0.00000041      -0.00110336
