149
Lattice="14.963600159 0.0 0.0 -7.481800079 12.958857869 0.0 0.0 0.0 24.0" Properties=species:S:1:pos:R:3:forces:R:3 energy=-1377.020332308244 free_energy=-1377.020332308244 stress="-0.06766743380340887 3.6463296385175527e-07 1.1898919625562882e-18 3.6463296385175527e-07 -0.06766812883413002 8.072081081479313e-19 1.1898919625562882e-18 8.072081081479313e-19 -3.265477130680805e-05" pbc="T T T"
C        0.00000000       0.00000000      13.90689144      -0.08751317      -0.18519093      -0.00258468
C       -5.05523000       9.45647000      13.86719863       0.00797976       0.00223664       0.00864586
C       -5.25746000      11.90815000      13.88773061       0.10580736      -0.15305542      -0.00246114
C       -2.62881000       5.95408000      13.86467571      -0.00238338       0.00462256       0.00766763
C       -2.83089000       8.40576000      13.86220756      -0.00526488       0.00164678      -0.00087441
C       -3.03312000      10.85745000      13.86827589      -0.00546673      -0.00682163       0.00063423
C       -0.20223000       2.45169000      13.90689400      -0.11678790       0.16811723      -0.00259138
C       -0.40447000       4.90337000      13.87880885      -0.02218945      -0.00512459      -0.00007188
C       -0.60670000       7.35506000      13.86409036       0.00731342       0.00881650       0.00137456
C       -0.80893000       9.80675000      13.86286350       0.00282545      -0.00019738       0.00041937
C       -1.01102000      12.25843000      13.86408910       0.00292185      -0.01154714       0.00136259
C        2.02211000       1.40098000      13.90689110       0.20398409       0.01692565      -0.00258844
C        1.81987000       3.85267000      13.88773735       0.07966253       0.16834857      -0.00247255
C        1.61764000       6.30435000      13.86828226       0.00822593      -0.00031015       0.00065208
C        1.41541000       8.75604000      13.86286966       0.00086414      -0.00156292       0.00042895
C        1.21325000      11.20760000      13.86286791       0.00042307       0.00152137       0.00042940
C        4.24645000       0.35028000      13.87880490       0.00647419       0.02193172      -0.00008071
C        4.04421000       2.80196000      13.87894416       0.00974474      -0.02030640       0.00262844
C        3.84198000       5.25365000      13.86720566      -0.00385238       0.00411705       0.00865302
C        3.63982000       7.70521000      13.86221717      -0.00118276       0.00095760      -0.00086253
C        3.43759000      10.15689000      13.86409596      -0.01142404       0.00161709       0.00137798
C        3.23535000      12.60858000      13.86828421      -0.00338508       0.00750241       0.00064991
C        6.26855000       1.75126000      13.86467473       0.00933179      -0.00018269       0.00767081
C        6.06639000       4.20282000      13.86481510       0.00239614       0.01406952      -0.00325907
C        5.86416000       6.65450000      13.86271551      -0.00019382      -0.00216571      -0.00387651
C        5.66193000       9.10619000      13.86468009      -0.00346513      -0.00741613       0.00767082
C        5.45969000      11.55788000      13.87881071       0.01625247      -0.01710306      -0.00007682
C        8.49282000       0.70043000      13.86221314       0.00359972      -0.00109594      -0.00085605
C        8.29073000       3.15211000      13.86270995      -0.00172682       0.00085223      -0.00386407
C        8.08850000       5.60380000      13.86288542      -0.00081734       0.00014233      -0.00451290
C        7.88627000       8.05549000      13.86481640       0.00823923      -0.00827882      -0.00326601
C        7.68403000      10.50717000      13.87894232      -0.02295604       0.00196983       0.00264124
C       10.51492000       2.10141000      13.86720432      -0.00146036      -0.00822001       0.00866446
C       10.31269000       4.55309000      13.86481513      -0.00865788      -0.00446130      -0.00325407
C       10.11061000       7.00478000      13.86270890      -0.00221768       0.00195082      -0.00388168
C       12.73926000       1.05070000      13.88773658      -0.18566082      -0.01498655      -0.00246211
C       12.53703000       3.50239000      13.87894481       0.01286220       0.01914359       0.00264250
C       -5.86409000      10.62393000      13.87880564       0.02258362       0.00545860      -0.00006627
C       -3.43751000       7.12154000      13.86220953      -0.00167139      -0.00038380      -0.00084051
C       -3.63975000       9.57323000      13.86466871       0.00430124      -0.00628657       0.00769639
C       -3.84198000      12.02491000      13.87893714      -0.01296526      -0.01878483       0.00264996
C       -1.01109000       3.61915000      13.88773616      -0.10591892       0.15318667      -0.00245603
C       -1.21332000       6.07084000      13.86720046      -0.00748149      -0.00284963       0.00866106
C       -1.41556000       8.52252000      13.86270190       0.00622068      -0.00067702      -0.00385678
C       -1.61764000      10.97421000      13.86480526       0.00832675       0.00446036      -0.00323954
C        1.41548000       0.11676000      13.90688930       0.11687103      -0.16847862      -0.00257731
C        1.21325000       2.56845000      13.90689290       0.08760480       0.18495434      -0.00256920
C        1.01102000       5.02013000      13.87894313       0.02264383      -0.00148792       0.00264861
C        0.80878000       7.47182000      13.86481153      -0.00854853       0.00765216      -0.00325404
C        0.60655000       9.92350000      13.86287739       0.00091354      -0.00293876      -0.00450459
C        0.40439000      12.37506000      13.86270540       0.00011458       0.00063267      -0.00386242
C        3.43759000       1.51774000      13.88773286       0.18569590       0.01534818      -0.00245030
C        3.23535000       3.96943000      13.87881123      -0.01584762       0.01672454      -0.00006550
C        3.03312000       6.42111000      13.86467852       0.00380529       0.00448221       0.00768363
C        2.83096000       8.87267000      13.86271070      -0.00149294       0.00399934      -0.00386269
C        2.62873000      11.32436000      13.86481341      -0.00247165      -0.01173147      -0.00325574
C        5.66193000       0.46704000      13.86719745       0.00204177       0.00819354       0.00867092
C        5.45969000       2.91872000      13.86828245       0.00401738      -0.01025617       0.00065627
C        5.25754000       5.37028000      13.86409801       0.00907589       0.00010126       0.00138930
C        5.05530000       7.82197000      13.86221848       0.00098149       0.00142754      -0.00084845
C        4.85307000      10.27365000      13.86720430       0.00613029      -0.00546376       0.00866709
C        4.65084000      12.72534000      13.87894505      -0.01029557       0.02068928       0.00264068
C        7.68411000       1.86789000      13.86221325      -0.00686410       0.00150304      -0.00085421
C        7.48187000       4.31958000      13.86287239      -0.00056245       0.00088605       0.00043321
C        7.27964000       6.77126000      13.86287579       0.00119837       0.00030681       0.00043607
C        7.07741000       9.22295000      13.86828423      -0.00832713       0.00053797       0.00065786
C        6.87518000      11.67464000      13.88773462      -0.08000956      -0.16868706      -0.00245805
C        9.90830000       0.81719000      13.86467820      -0.00736514      -0.00102151       0.00767046
C        9.70606000       3.26887000      13.86409688      -0.00007903       0.01113215       0.00136493
C        9.50398000       5.72056000      13.86287235      -0.00212572       0.00049605       0.00043522
C        9.30175000       8.17224000      13.86409312      -0.00702331      -0.00918795       0.00139114
C       11.93040000       2.21817000      13.87881122      -0.00656318      -0.02247104      -0.00007210
C       11.72817000       4.66985000      13.86828397       0.00484773       0.00656643       0.00064670
C       14.15474000       1.16746000      13.90689224      -0.20406554      -0.01649356      -0.00256898
C        0.00000000       0.00000000      10.09310856      -0.08751317      -0.18519093       0.00258468
C       -5.05523000       9.45647000      10.13280137       0.00797976       0.00223664      -0.00864586
C       -5.25746000      11.90815000      10.11226939       0.10580736      -0.15305542       0.00246114
C       -2.62881000       5.95408000      10.13532429      -0.00238338       0.00462256      -0.00766763
C       -2.83089000       8.40576000      10.13779244      -0.00526488       0.00164678       0.00087441
C       -3.03312000      10.85745000      10.13172411      -0.00546673      -0.00682163      -0.00063423
C       -0.20223000       2.45169000      10.09310600      -0.11678790       0.16811723       0.00259138
C       -0.40447000       4.90337000      10.12119115      -0.02218945      -0.00512459       0.00007188
C       -0.60670000       7.35506000      10.13590964       0.00731342       0.00881650      -0.00137456
C       -0.80893000       9.80675000      10.13713650       0.00282545      -0.00019738      -0.00041937
C       -1.01102000      12.25843000      10.13591090       0.00292185      -0.01154714      -0.00136259
C        2.02211000       1.40098000      10.09310890       0.20398409       0.01692565       0.00258844
C        1.81987000       3.85267000      10.11226265       0.07966253       0.16834857       0.00247255
C        1.61764000       6.30435000      10.13171774       0.00822593      -0.00031015      -0.00065208
C        1.41541000       8.75604000      10.13713034       0.00086414      -0.00156292      -0.00042895
C        1.21325000      11.20760000      10.13713209       0.00042307       0.00152137      -0.00042940
C        4.24645000       0.35028000      10.12119510       0.00647419       0.02193172       0.00008071
C        4.04421000       2.80196000      10.12105584       0.00974474      -0.02030640      -0.00262844
C        3.84198000       5.25365000      10.13279434      -0.00385238       0.00411705      -0.00865302
C        3.63982000       7.70521000      10.13778283      -0.00118276       0.00095760       0.00086253
C        3.43759000      10.15689000      10.13590404      -0.01142404       0.00161709      -0.00137798
C        3.23535000      12.60858000      10.13171579      -0.00338508       0.00750241      -0.00064991
C        6.26855000       1.75126000      10.13532527       0.00933179      -0.00018269      -0.00767081
C        6.06639000       4.20282000      10.13518490       0.00239614       0.01406952       0.00325907
C        5.86416000       6.65450000      10.13728449      -0.00019382      -0.00216571       0.00387651
C        5.66193000       9.10619000      10.13531991      -0.00346513      -0.00741613      -0.00767082
C        5.45969000      11.55788000      10.12118929       0.01625247      -0.01710306       0.00007682
C        8.49282000       0.70043000      10.13778686       0.00359972      -0.00109594       0.00085605
C        8.29073000       3.15211000      10.13729005      -0.00172682       0.00085223       0.00386407
C        8.08850000       5.60380000      10.13711458      -0.00081734       0.00014233       0.00451290
C        7.88627000       8.05549000      10.13518360       0.00823923      -0.00827882       0.00326601
C        7.68403000      10.50717000      10.12105768      -0.02295604       0.00196983      -0.00264124
C       10.51492000       2.10141000      10.13279568      -0.00146036      -0.00822001      -0.00866446
C       10.31269000       4.55309000      10.13518487      -0.00865788      -0.00446130       0.00325407
C       10.11061000       7.00478000      10.13729110      -0.00221768       0.00195082       0.00388168
C       12.73926000       1.05070000      10.11226342      -0.18566082      -0.01498655       0.00246211
C       12.53703000       3.50239000      10.12105519       0.01286220       0.01914359      -0.00264250
C       -5.86409000      10.62393000      10.12119436       0.02258362       0.00545860       0.00006627
C       -3.43751000       7.12154000      10.13779047      -0.00167139      -0.00038380       0.00084051
C       -3.63975000       9.57323000      10.13533129       0.00430124      -0.00628657      -0.00769639
C       -3.84198000      12.02491000      10.12106286      -0.01296526      -0.01878483      -0.00264996
C       -1.01109000       3.61915000      10.11226384      -0.10591892       0.15318667       0.00245603
C       -1.21332000       6.07084000      10.13279954      -0.00748149      -0.00284963      -0.00866106
C       -1.41556000       8.52252000      10.13729810       0.00622068      -0.00067702       0.00385678
C       -1.61764000      10.97421000      10.13519474       0.00832675       0.00446036       0.00323954
C        1.41548000       0.11676000      10.09311070       0.11687103      -0.16847862       0.00257731
C        1.21325000       2.56845000      10.09310710       0.08760480       0.18495434       0.00256920
C        1.01102000       5.02013000      10.12105687       0.02264383      -0.00148792      -0.00264861
C        0.80878000       7.47182000      10.13518847      -0.00854853       0.00765216       0.00325404
C        0.60655000       9.92350000      10.13712261       0.00091354      -0.00293876       0.00450459
C        0.40439000      12.37506000      10.13729460       0.00011458       0.00063267       0.00386242
C        3.43759000       1.51774000      10.11226714       0.18569590       0.01534818       0.00245030
C        3.23535000       3.96943000      10.12118877      -0.01584762       0.01672454       0.00006550
C        3.03312000       6.42111000      10.13532148       0.00380529       0.00448221      -0.00768363
C        2.83096000       8.87267000      10.13728930      -0.00149294       0.00399934       0.00386269
C        2.62873000      11.32436000      10.13518659      -0.00247165      -0.01173147       0.00325574
C        5.66193000       0.46704000      10.13280255       0.00204177       0.00819354      -0.00867092
C        5.45969000       2.91872000      10.13171755       0.00401738      -0.01025617      -0.00065627
C        5.25754000       5.37028000      10.13590199       0.00907589       0.00010126      -0.00138930
C        5.05530000       7.82197000      10.13778152       0.00098149       0.00142754       0.00084845
C        4.85307000      10.27365000      10.13279570       0.00613029      -0.00546376      -0.00866709
C        4.65084000      12.72534000      10.12105495      -0.01029557       0.02068928      -0.00264068
C        7.68411000       1.86789000      10.13778675      -0.00686410       0.00150304       0.00085421
C        7.48187000       4.31958000      10.13712761      -0.00056245       0.00088605      -0.00043321
C        7.27964000       6.77126000      10.13712421       0.00119837       0.00030681      -0.00043607
C        7.07741000       9.22295000      10.13171577      -0.00832713       0.00053797      -0.00065786
C        6.87518000      11.67464000      10.11226538      -0.08000956      -0.16868706       0.00245805
C        9.90830000       0.81719000      10.13532180      -0.00736514      -0.00102151      -0.00767046
C        9.70606000       3.26887000      10.13590312      -0.00007903       0.01113215      -0.00136493
C        9.50398000       5.72056000      10.13712765      -0.00212572       0.00049605      -0.00043522
C        9.30175000       8.17224000      10.13590688      -0.00702331      -0.00918795      -0.00139114
C       11.93040000       2.21817000      10.12118878      -0.00656318      -0.02247104       0.00007210
C       11.72817000       4.66985000      10.13171603       0.00484773       0.00656643      -0.00064670
C       14.15474000       1.16746000      10.09310776      -0.20406554      -0.01649356       0.00256898
Li       0.60662252       1.28423181      12.00000000       0.00000383      -0.00000452       0.00000000
