157
Lattice="15.362700462 0.0 0.0 -7.681350231 13.304488871 0.0 0.0 0.0 24.0" Properties=species:S:1:pos:R:3:forces:R:3 energy=-1451.3460290705061 free_energy=-1451.3460290705061 stress="-0.06762395239814062 1.6605357204228155e-07 -8.811251434364058e-18 1.6605357204228155e-07 -0.06762417841879433 1.2840519824463366e-18 -8.811251434364058e-18 1.2840519824463366e-18 -2.5709189471678775e-05" pbc="T T T"
C        0.00000000       0.00000000      13.87507704      -0.05149058      -0.17761028       0.00666701
C       -4.13610000       7.84619000      13.87473063       0.00022852       0.00288148       0.00396063
C       -4.72703000      10.23421000      13.87477205      -0.00232883      -0.00976149      -0.00514932
C       -5.31780000      12.62223000      13.87338150       0.01832551       0.00774051       0.00866648
C       -0.59093000       2.38802000      13.88767844      -0.19594690      -0.05249491       0.00213641
C       -1.18178000       4.77591000      13.87508729      -0.12439469       0.13620137       0.00665444
C       -1.77255000       7.16394000      13.87395922      -0.01062833      -0.00181959      -0.00458357
C       -2.36347000       9.55196000      13.87485886      -0.00327856      -0.00084260       0.00015227
C       -2.95440000      11.93998000      13.87466751       0.00970656      -0.00991721      -0.00632658
C        1.77263000       1.70577000      13.88767904       0.14110946      -0.15318213       0.00212380
C        1.18178000       4.09366000      13.88768388       0.05620869       0.20191169       0.00209022
C        0.59085000       6.48168000      13.87338487       0.02360355      -0.00042717       0.00867714
C       -0.00008000       8.86970000      13.87471916      -0.00486830       0.00379101      -0.00368832
C       -0.59077000      11.25759000      13.87503745      -0.00434768       0.00082696      -0.00063330
C        4.13610000       1.02338000      13.87338498      -0.00936394      -0.01541399       0.00866478
C        3.54517000       3.41140000      13.87509231       0.18483273       0.04349796       0.00662302
C        2.95440000       5.79943000      13.87338168      -0.02168733       0.00801157       0.00869501
C        2.36355000       8.18732000      13.87466794      -0.00304433       0.01071012      -0.00633081
C        1.77263000      10.57534000      13.87503696       0.00251745       0.00311239      -0.00062720
C        1.18170000      12.96336000      13.87503772       0.00064665       0.00158353      -0.00062887
C        6.49965000       0.34113000      13.87471875       0.00619305       0.00655529      -0.00369315
C        5.90873000       2.72915000      13.87395920      -0.00105265       0.00909343      -0.00459064
C        5.31780000       5.11717000      13.87396472       0.00917988      -0.01094897      -0.00500358
C        4.72695000       7.50506000      13.87477239       0.01441276       0.00423615      -0.00515448
C        4.13618000       9.89308000      13.87485843      -0.00449638       0.00191801       0.00016192
C        3.54525000      12.28111000      13.87471967      -0.00280898      -0.01610113      -0.00368478
C        8.27212000       2.04690000      13.87485876       0.00479370      -0.00605334       0.00014928
C        7.68143000       4.43479000      13.87473075      -0.00504050       0.00253215       0.00395453
C        7.09050000       6.82281000      13.87500954      -0.00545006       0.00027699       0.00077078
C        6.49957000       9.21083000      13.87473076       0.00305954      -0.00340185       0.00396478
C        5.90873000      11.59872000      13.87396033       0.00805952      -0.00054818      -0.00460794
C       10.63575000       1.36451000      13.87466734      -0.00948806       0.00219567      -0.00632067
C       10.04482000       3.75253000      13.87477327      -0.00413345       0.01195660      -0.00514497
C        9.45390000       6.14055000      13.87501014       0.00195020      -0.00070705       0.00077379
C        8.86313000       8.52858000      13.87501028       0.00111272      -0.00398840       0.00077436
C        8.27228000      10.91647000      13.87396515      -0.01235718       0.00246648      -0.00501999
C       12.99915000       0.68225000      13.87338124      -0.00632045       0.02169761       0.00866078
C       12.40838000       3.07028000      13.87338231      -0.00586722      -0.02391463       0.00867541
C       11.81745000       5.45830000      13.87396544       0.00162311       0.00399097      -0.00499633
C       -6.69660000      12.28111000      13.87338262      -0.01836647      -0.00367026       0.00864841
C       12.80228000       4.43479000      13.87338786       0.00899402       0.02299236       0.00864892
C       -3.15135000       6.82281000      13.87466828      -0.00052230       0.00557277      -0.00632759
C       -3.74228000       9.21083000      13.87485758       0.00114707      -0.00136021       0.00015722
C       -4.33297000      11.59872000      13.87395845       0.00158622       0.00635618      -0.00459178
C        0.39390000       1.36451000      13.88767314      -0.05625035      -0.19339881       0.00214487
C       -0.19687000       3.75253000      13.88768326      -0.14685700       0.14926767       0.00210730
C       -0.78780000       6.14055000      13.87338260      -0.02347338      -0.01385916       0.00867460
C       -1.37873000       8.52858000      13.87477356       0.00570240       0.00694813      -0.00515023
C       -1.96958000      10.91647000      13.87473082       0.00313032       0.00354374       0.00396392
C        5.12085000       0.00000000      13.87396450       0.00048139      -0.00656485      -0.00500552
C        2.75745000       0.68225000      13.87508446       0.12594748      -0.13061605       0.00665537
C        2.16652000       3.07028000      13.88769046       0.20100363       0.04893826       0.00207898
C        1.57560000       5.45830000      13.87508695       0.05672326       0.17553587       0.00663990
C        0.98475000       7.84619000      13.87396493       0.00918377       0.00466710      -0.00501007
C        0.39398000      10.23421000      13.87501019      -0.00338066      -0.00175915       0.00077738
C       -0.19695000      12.62223000      13.87501017      -0.00195733      -0.00003604       0.00077752
C        4.53008000       2.38802000      13.87338219      -0.00415453       0.02055953       0.00868718
C        3.93923000       4.77591000      13.87338680       0.00494264      -0.01699984       0.00866778
C        3.34830000       7.16394000      13.87395935      -0.00672215       0.00479109      -0.00459394
C        2.75737000       9.55196000      13.87473038       0.00411079      -0.00244470       0.00396274
C        2.16645000      11.93998000      13.87501073       0.00648805      -0.00323470       0.00077200
C        6.89347000       1.70577000      13.87477253       0.00816935      -0.01404811      -0.00514253
C        6.30262000       4.09366000      13.87466736       0.01121266       0.00594755      -0.00632546
C        5.71170000       6.48168000      13.87471748       0.00369887       0.01288319      -0.00368029
C        5.12093000       8.86970000      13.87485791      -0.00174709      -0.00649305       0.00015644
C        4.53008000      11.25759000      13.87477447      -0.01534306       0.00362901      -0.00514946
C        9.25710000       1.02338000      13.87473095      -0.00671614       0.00425955       0.00396107
C        8.66618000       3.41140000      13.87485865      -0.00043175       0.00075100       0.00016071
C        8.07525000       5.79943000      13.87503661       0.00028035      -0.00382532      -0.00062823
C        7.48440000       8.18732000      13.87503737      -0.00045343       0.00294104      -0.00063331
C        6.89347000      10.57534000      13.87466821       0.00265231      -0.00706145      -0.00632418
C        6.30270000      12.96336000      13.87337832       0.01471860      -0.01369498       0.00866528
C       11.62050000       0.34113000      13.87396503      -0.00304359       0.00605191      -0.00501048
C       11.02957000       2.72915000      13.87395926       0.00359643      -0.00956436      -0.00460063
C       10.43865000       5.11717000      13.87471915      -0.00597556      -0.00777323      -0.00368780
C        9.84795000       7.50506000      13.87503709      -0.00411063       0.00442807      -0.00063183
C        9.25703000       9.89308000      13.87471865       0.00807344      -0.00547071      -0.00367998
C       13.39313000       2.04690000      13.87508187      -0.18149953      -0.04823400       0.00664397
C        0.00000000       0.00000000      10.12492296      -0.05149058      -0.17761028      -0.00666701
C       -4.13610000       7.84619000      10.12526937       0.00022852       0.00288148      -0.00396063
C       -4.72703000      10.23421000      10.12522795      -0.00232883      -0.00976149       0.00514932
C       -5.31780000      12.62223000      10.12661850       0.01832551       0.00774051      -0.00866648
C       -0.59093000       2.38802000      10.11232156      -0.19594690      -0.05249491      -0.00213641
C       -1.18178000       4.77591000      10.12491271      -0.12439469       0.13620137      -0.00665444
C       -1.77255000       7.16394000      10.12604078      -0.01062833      -0.00181959       0.00458357
C       -2.36347000       9.55196000      10.12514114      -0.00327856      -0.00084260      -0.00015227
C       -2.95440000      11.93998000      10.12533249       0.00970656      -0.00991721       0.00632658
C        1.77263000       1.70577000      10.11232096       0.14110946      -0.15318213      -0.00212380
C        1.18178000       4.09366000      10.11231612       0.05620869       0.20191169      -0.00209022
C        0.59085000       6.48168000      10.12661513       0.02360355      -0.00042717      -0.00867714
C       -0.00008000       8.86970000      10.12528084      -0.00486830       0.00379101       0.00368832
C       -0.59077000      11.25759000      10.12496255      -0.00434768       0.00082696       0.00063330
C        4.13610000       1.02338000      10.12661502      -0.00936394      -0.01541399      -0.00866478
C        3.54517000       3.41140000      10.12490769       0.18483273       0.04349796      -0.00662302
C        2.95440000       5.79943000      10.12661832      -0.02168733       0.00801157      -0.00869501
C        2.36355000       8.18732000      10.12533206      -0.00304433       0.01071012       0.00633081
C        1.77263000      10.57534000      10.12496304       0.00251745       0.00311239       0.00062720
C        1.18170000      12.96336000      10.12496228       0.00064665       0.00158353       0.00062887
C        6.49965000       0.34113000      10.12528125       0.00619305       0.00655529       0.00369315
C        5.90873000       2.72915000      10.12604080      -0.00105265       0.00909343       0.00459064
C        5.31780000       5.11717000      10.12603528       0.00917988      -0.01094897       0.00500358
C        4.72695000       7.50506000      10.12522761       0.01441276       0.00423615       0.00515448
C        4.13618000       9.89308000      10.12514157      -0.00449638       0.00191801      -0.00016192
C        3.54525000      12.28111000      10.12528033      -0.00280898      -0.01610113       0.00368478
C        8.27212000       2.04690000      10.12514124       0.00479370      -0.00605334      -0.00014928
C        7.68143000       4.43479000      10.12526925      -0.00504050       0.00253215      -0.00395453
C        7.09050000       6.82281000      10.12499046      -0.00545006       0.00027699      -0.00077078
C        6.49957000       9.21083000      10.12526924       0.00305954      -0.00340185      -0.00396478
C        5.90873000      11.59872000      10.12603967       0.00805952      -0.00054818       0.00460794
C       10.63575000       1.36451000      10.12533266      -0.00948806       0.00219567       0.00632067
C       10.04482000       3.75253000      10.12522673      -0.00413345       0.01195660       0.00514497
C        9.45390000       6.14055000      10.12498986       0.00195020      -0.00070705      -0.00077379
C        8.86313000       8.52858000      10.12498972       0.00111272      -0.00398840      -0.00077436
C        8.27228000      10.91647000      10.12603485      -0.01235718       0.00246648       0.00501999
C       12.99915000       0.68225000      10.12661876      -0.00632045       0.02169761      -0.00866078
C       12.40838000       3.07028000      10.12661769      -0.00586722      -0.02391463      -0.00867541
C       11.81745000       5.45830000      10.12603456       0.00162311       0.00399097       0.00499633
C       -6.69660000      12.28111000      10.12661738      -0.01836647      -0.00367026      -0.00864841
C       12.80228000       4.43479000      10.12661214       0.00899402       0.02299236      -0.00864892
C       -3.15135000       6.82281000      10.12533172      -0.00052230       0.00557277       0.00632759
C       -3.74228000       9.21083000      10.12514242       0.00114707      -0.00136021      -0.00015722
C       -4.33297000      11.59872000      10.12604155       0.00158622       0.00635618       0.00459178
C        0.39390000       1.36451000      10.11232686      -0.05625035      -0.19339881      -0.00214487
C       -0.19687000       3.75253000      10.11231674      -0.14685700       0.14926767      -0.00210730
C       -0.78780000       6.14055000      10.12661740      -0.02347338      -0.01385916      -0.00867460
C       -1.37873000       8.52858000      10.12522644       0.00570240       0.00694813       0.00515023
C       -1.96958000      10.91647000      10.12526918       0.00313032       0.00354374      -0.00396392
C        5.12085000       0.00000000      10.12603550       0.00048139      -0.00656485       0.00500552
C        2.75745000       0.68225000      10.12491554       0.12594748      -0.13061605      -0.00665537
C        2.16652000       3.07028000      10.11230954       0.20100363       0.04893826      -0.00207898
C        1.57560000       5.45830000      10.12491305       0.05672326       0.17553587      -0.00663990
C        0.98475000       7.84619000      10.12603507       0.00918377       0.00466710       0.00501007
C        0.39398000      10.23421000      10.12498981      -0.00338066      -0.00175915      -0.00077738
C       -0.19695000      12.62223000      10.12498983      -0.00195733      -0.00003604      -0.00077752
C        4.53008000       2.38802000      10.12661781      -0.00415453       0.02055953      -0.00868718
C        3.93923000       4.77591000      10.12661320       0.00494264      -0.01699984      -0.00866778
C        3.34830000       7.16394000      10.12604065      -0.00672215       0.00479109       0.00459394
C        2.75737000       9.55196000      10.12526962       0.00411079      -0.00244470      -0.00396274
C        2.16645000      11.93998000      10.12498927       0.00648805      -0.00323470      -0.00077200
C        6.89347000       1.70577000      10.12522747       0.00816935      -0.01404811       0.00514253
C        6.30262000       4.09366000      10.12533264       0.01121266       0.00594755       0.00632546
C        5.71170000       6.48168000      10.12528252       0.00369887       0.01288319       0.00368029
C        5.12093000       8.86970000      10.12514209      -0.00174709      -0.00649305      -0.00015644
C        4.53008000      11.25759000      10.12522553      -0.01534306       0.00362901       0.00514946
C        9.25710000       1.02338000      10.12526905      -0.00671614       0.00425955      -0.00396107
C        8.66618000       3.41140000      10.12514135      -0.00043175       0.00075100      -0.00016071
C        8.07525000       5.79943000      10.12496339       0.00028035      -0.00382532       0.00062823
C        7.48440000       8.18732000      10.12496263      -0.00045343       0.00294104       0.00063331
C        6.89347000      10.57534000      10.12533179       0.00265231      -0.00706145       0.00632418
C        6.30270000      12.96336000      10.12662168       0.01471860      -0.01369498      -0.00866528
C       11.62050000       0.34113000      10.12603497      -0.00304359       0.00605191       0.00501048
C       11.02957000       2.72915000      10.12604074       0.00359643      -0.00956436       0.00460063
C       10.43865000       5.11717000      10.12528085      -0.00597556      -0.00777323       0.00368780
C        9.84795000       7.50506000      10.12496291      -0.00411063       0.00442807       0.00063183
C        9.25703000       9.89308000      10.12528135       0.00807344      -0.00547071       0.00367998
C       13.39313000       2.04690000      10.12491813      -0.18149953      -0.04823400      -0.00664397
Li       0.78780935       2.72906114      12.00000000      -0.00001467      -0.00002013       0.00000000
