157
Lattice="15.362700462 0.0 0.0 -7.681350231 13.304488871 0.0 0.0 0.0 24.0" Properties=species:S:1:pos:R:3:forces:R:3 energy=-1451.4147724032107 free_energy=-1451.4147724032107 stress="-0.06641175045052311 2.451737851936826e-08 3.849560920234535e-08 2.451737851936826e-08 -0.06641172821833183 -6.488688912347145e-08 3.849560920234535e-08 -6.488688912347145e-08 -3.546789102654394e-05" pbc="T T T"
C        0.00000000       0.00000000      14.02274616      -0.08600531      -0.29963012       0.00265553
C       -4.13610000       7.84619000      13.73633732      -0.00267607       0.00749182      -0.00013384
C       -4.72703000      10.23421000      13.80425989       0.01425240      -0.00602252      -0.00103056
C       -5.31780000      12.62223000      13.94300244       0.10547208      -0.11434138       0.00248855
C       -0.59093000       2.38802000      14.02273878      -0.21242491       0.22127791       0.00264295
C       -1.18178000       4.77591000      13.88027781       0.01365265       0.00796678       0.00114552
C       -1.77255000       7.16394000      13.76065736       0.01003327      -0.01718369       0.00171352
C       -2.36347000       9.55196000      13.74000762      -0.00696791      -0.00075168      -0.00084492
C       -2.95440000      11.93998000      13.80457154       0.01408676      -0.01948805      -0.00043755
C        1.77263000       1.70577000      14.02278551       0.30075848       0.07090478       0.00264270
C        1.18178000       4.09366000      13.94299789       0.04155434       0.15274190       0.00248956
C        0.59085000       6.48168000      13.80461115       0.00892724       0.01564454      -0.00042886
C       -0.00008000       8.86970000      13.72822746       0.00955866      -0.01021126      -0.00148199
C       -0.59077000      11.25759000      13.72821359      -0.01345715       0.00226766      -0.00147914
C        4.13610000       1.02338000      13.88033727       0.00198304      -0.00636761       0.00115158
C        3.54517000       3.41140000      13.87892999      -0.00155871       0.01060735       0.00102822
C        2.95440000       5.79943000      13.80430445      -0.00200825       0.00852513      -0.00103788
C        2.36355000       8.18732000      13.74000537      -0.00382633       0.00262580      -0.00084860
C        1.77263000      10.57534000      13.72820366       0.00550559       0.00987980      -0.00147357
C        1.18170000      12.96336000      13.73996236       0.00198640       0.00259856      -0.00084716
C        6.49965000       0.34113000      13.76064475      -0.02704114      -0.00086874       0.00171494
C        5.90873000       2.72915000      13.77515896      -0.03887127      -0.00312617      -0.00285532
C        5.31780000       5.11717000      13.75318073      -0.01875040      -0.01710647       0.00143774
C        4.72695000       7.50506000      13.73632355       0.00041495      -0.00075043      -0.00012417
C        4.13618000       9.89308000      13.76062286       0.00521283       0.02015472       0.00171399
C        3.54525000      12.28111000      13.80453848      -0.02014619      -0.00526567      -0.00046120
C        8.27212000       2.04690000      13.73630943       0.01219162      -0.00429477      -0.00013638
C        7.68143000       4.43479000      13.71727881      -0.00682992       0.00042525      -0.00299488
C        7.09050000       6.82281000      13.71727604      -0.00470122       0.00230086      -0.00298582
C        6.49957000       9.21083000      13.77512310       0.01779367       0.03049201      -0.00286328
C        5.90873000      11.59872000      13.88032148      -0.00781310       0.00996139       0.00113706
C       10.63575000       1.36451000      13.80419422      -0.01306485      -0.00220237      -0.00104879
C       10.04482000       3.75253000      13.75315584       0.02484551      -0.01184086       0.00143255
C        9.45390000       6.14055000      13.71729163       0.00440634       0.00038067      -0.00298707
C        8.86313000       8.52858000      13.75317151       0.00034789       0.02164519       0.00141927
C        8.27228000      10.91647000      13.87890563       0.00908353       0.00308128       0.00099829
C       12.99915000       0.68225000      13.94296964      -0.14498667      -0.03574760       0.00248185
C       12.40838000       3.07028000      13.87881341      -0.01169849      -0.01260984       0.00099443
C       11.81745000       5.45830000      13.77512436       0.01998751      -0.03313886      -0.00287495
C       -6.69660000      12.28111000      13.96497787       0.05933652      -0.18399994       0.00122562
C       12.80228000       4.43479000      13.84840424      -0.03550871       0.03616862      -0.00122053
C       -3.15135000       6.82281000      13.75163587       0.00720117      -0.00556728       0.00090626
C       -3.74228000       9.21083000      13.75321282      -0.01268491       0.01881002       0.00081485
C       -4.33297000      11.59872000      13.85242021      -0.03216913       0.03110072      -0.00049873
C        0.39390000       1.36451000      14.06935861       0.00092414       0.00464268       0.00655758
C       -0.19687000       3.75253000      13.96531505      -0.03903005       0.18428068       0.00162005
C       -0.78780000       6.14055000      13.81353069      -0.00812895      -0.02140646       0.00181230
C       -1.37873000       8.52858000      13.73407254       0.00350825      -0.01659604       0.00140304
C       -1.96958000      10.91647000      13.74935523      -0.01759137       0.02328591       0.00275723
C        5.12085000       0.00000000      13.81350678      -0.00930210       0.01417481       0.00183305
C        2.75745000       0.68225000      13.96537709       0.17398577      -0.05856095       0.00163106
C        2.16652000       3.07028000      13.96502407       0.12961994       0.13677482       0.00122653
C        1.57560000       5.45830000      13.85243108      -0.00557402      -0.03907855      -0.00050285
C        0.98475000       7.84619000      13.74936806      -0.00575343      -0.02373300       0.00275607
C        0.39398000      10.23421000      13.71794542      -0.00206193      -0.00069978       0.00071337
C       -0.19695000      12.62223000      13.73403978      -0.01489932       0.00196646       0.00140554
C        4.53008000       2.38802000      13.84851966       0.04006280       0.00947215      -0.00122679
C        3.93923000       4.77591000      13.81129524      -0.00712342      -0.01652781       0.00147678
C        3.34830000       7.16394000      13.75323361      -0.01047685      -0.02474293       0.00082734
C        2.75737000       9.55196000      13.73404753       0.01408153       0.00716486       0.00139955
C        2.16645000      11.93998000      13.74932823       0.03252656       0.00539473       0.00274933
C        6.89347000       1.70577000      13.75162748      -0.00383395      -0.00337637       0.00091089
C        6.30262000       4.09366000      13.74344761       0.00141079      -0.00214888       0.00244166
C        5.71170000       6.48168000      13.72919000      -0.00369698      -0.01112838       0.00059337
C        5.12093000       8.86970000      13.75160434       0.00159434       0.00075293       0.00089699
C        4.53008000      11.25759000      13.81349348       0.01468970       0.00889807       0.00183021
C        9.25710000       1.02338000      13.75316292       0.01957367       0.00778725       0.00080875
C        8.66618000       3.41140000      13.72918213       0.01150486      -0.00042289       0.00058630
C        8.07525000       5.79943000      13.71074749      -0.00123632      -0.00323888      -0.00043413
C        7.48440000       8.18732000      13.74344687      -0.00352414       0.00909682       0.00243937
C        6.89347000      10.57534000      13.84848132      -0.00723635      -0.04466448      -0.00121473
C        6.30270000      12.96336000      13.96532224      -0.14625626      -0.12353765       0.00161393
C       11.62050000       0.34113000      13.85235324       0.03881743       0.00805710      -0.00049925
C       11.02957000       2.72915000      13.81120951       0.02184641       0.00778318       0.00145737
C       10.43865000       5.11717000      13.74345397       0.01114024      -0.00131501       0.00243460
C        9.84795000       7.50506000      13.72920573      -0.01119912       0.01485541       0.00059192
C        9.25703000       9.89308000      13.81126234      -0.01845491       0.01124227       0.00148427
C       13.39313000       2.04690000      13.96494192      -0.18530539       0.03902494       0.00121319
C       10.24177000       8.86970000      10.22504972      -0.00373248      -0.00550230      -0.00227610
C       -5.71178000      11.25759000      10.14376438       0.04122201       0.00980153       0.00090647
C       -1.57568000       3.41140000      10.10242315      -0.13845392       0.14653586       0.00290455
C       -2.16660000       5.79943000      10.19825633       0.01027197      -0.02031116      -0.00301196
C       -2.75730000       8.18732000      10.24104837      -0.00152450      -0.00087159      -0.00081996
C       -3.34822000      10.57534000      10.21553309       0.00248204      -0.00559368      -0.00178511
C       -3.93915000      12.96336000      10.14468323      -0.00849373      -0.03905339       0.00237467
C        1.37865000       0.34113000      10.03796205       0.19461439      -0.19554282       0.00157507
C        0.78788000       2.72915000      10.03799469       0.07106367       0.26254141       0.00158055
C        0.19695000       5.11717000      10.14470816       0.03696126       0.00986492       0.00237820
C       -0.39390000       7.50506000      10.22938907      -0.00255577       0.00435857      -0.00094291
C       -0.98483000       9.89308000      10.25174573       0.00256874      -0.00138402      -0.00233163
C       -1.57575000      12.28111000      10.22937963       0.00983150      -0.00175118      -0.00094436
C        3.15127000       2.04690000      10.10256804       0.20110001       0.04397239       0.00292381
C        2.56042000       4.43479000      10.14392744      -0.02312533       0.03474583       0.00091297
C        1.96965000       6.82281000      10.21559353      -0.00051268       0.00847594      -0.00177729
C        1.37873000       9.21083000      10.25175705      -0.00129248      -0.00275482      -0.00233200
C        0.78788000      11.59872000      10.25172874      -0.00433062       0.00524427      -0.00233884
C        5.51490000       1.36451000      10.19829821      -0.02311946       0.00590569      -0.00300801
C        4.92398000       3.75253000      10.19710903      -0.01783714      -0.00928182      -0.00048515
C        4.33305000       6.14055000      10.22511619       0.00547019      -0.00425641      -0.00226245
C        3.74212000       8.52858000      10.24107565       0.00792333       0.00109573      -0.00082369
C        3.15127000      10.91647000      10.22933750       0.00615372      -0.00155258      -0.00095351
C       10.24185000       0.00000000      10.21550782      -0.01373755      -0.00321288      -0.00179528
C        7.87830000       0.68225000      10.24103678      -0.00272178       0.00136390      -0.00082918
C        7.28737000       3.07028000      10.23854667      -0.00101471       0.00137589      -0.00163694
C        6.69660000       5.45830000      10.24486622      -0.00493252      -0.00678795      -0.00328306
C        6.10575000       7.84619000      10.23856244      -0.00321406       0.00501320      -0.00164036
C        5.51483000      10.23421000      10.19824956       0.01119698       0.01482650      -0.00301537
C        4.92390000      12.62223000      10.14459292      -0.02824814       0.02322182       0.00235815
C        9.65093000       2.38802000      10.22501555      -0.00206749       0.00332936      -0.00227471
C        9.06008000       4.77591000      10.24483342       0.00401714       0.00126342      -0.00329378
C        8.46915000       7.16394000      10.24484593       0.00291920       0.00773272      -0.00328493
C        7.87822000       9.55196000      10.19701893       0.00093388       0.01697298      -0.00050111
C        7.28745000      11.93998000      10.10241606      -0.05780554      -0.19970740       0.00290003
C       12.01432000       1.70577000      10.14371324      -0.00839274      -0.04062631       0.00089279
C       11.42363000       4.09366000      10.19700708       0.01335362      -0.00366088      -0.00050169
C       10.83270000       6.48168000      10.23853814      -0.00380143      -0.00316609      -0.00164719
C       14.37795000       1.02338000      10.03789934      -0.27012973      -0.06208768       0.00156916
C        0.00000000       0.00000000      10.03810034      -0.07715589      -0.26792282       0.00185831
C       -4.13610000       7.84619000      10.23945498       0.00087598       0.00627389      -0.00091210
C       -4.72703000      10.23421000      10.19792424       0.00471830       0.01452502      -0.00280090
C       -5.31780000      12.62223000      10.10336807       0.14136406      -0.15225191       0.00212816
C       -0.59093000       2.38802000      10.03811119      -0.18888443       0.19774533       0.00186687
C       -1.18178000       4.77591000      10.14450343      -0.04159201       0.00575978       0.00052950
C       -1.77255000       7.16394000      10.22769375       0.00657395       0.00149148      -0.00187030
C       -2.36347000       9.55196000      10.24234002      -0.00193980       0.00105058      -0.00184577
C       -2.95440000      11.93998000      10.19990972      -0.01045848      -0.00136443       0.00110667
C        1.77263000       1.70577000      10.03819866       0.26867620       0.06236697       0.00187552
C        1.18178000       4.09366000      10.10346753       0.05476924       0.20566159       0.00213076
C        0.59085000       6.48168000      10.19994018       0.00778315      -0.01172445       0.00110926
C       -0.00008000       8.86970000      10.25086894       0.00565746      -0.00764581      -0.00190257
C       -0.59077000      11.25759000      10.25084865      -0.01159883       0.00640510      -0.00190366
C        4.13610000       1.02338000      10.14455929       0.02393038       0.04004752       0.00053431
C        3.54517000       3.41140000      10.14339505       0.04095071      -0.01954615       0.00260957
C        2.95440000       5.79943000      10.19801477      -0.01433967      -0.01122301      -0.00279014
C        2.36355000       8.18732000      10.24237596      -0.00757334       0.00269303      -0.00184626
C        1.77263000      10.57534000      10.25084598       0.00556975       0.00206211      -0.00190578
C        1.18170000      12.96336000      10.24231883       0.00705748      -0.00309553      -0.00185596
C        6.49965000       0.34113000      10.22769874      -0.00418670      -0.00946138      -0.00187077
C        5.90873000       2.72915000      10.21363188       0.00815119       0.00050381      -0.00156307
C        5.31780000       5.11717000      10.22546736       0.00376673       0.00293477      -0.00171127
C        4.72695000       7.50506000      10.23949530       0.00025018       0.00175802      -0.00091000
C        4.13618000       9.89308000      10.22768524      -0.01135090       0.00750090      -0.00187424
C        3.54525000      12.28111000      10.19985370       0.00626184       0.00475837       0.00109219
C        8.27212000       2.04690000      10.23943690       0.00774338      -0.00323463      -0.00091097
C        7.68143000       4.43479000      10.24590899      -0.00340651       0.00128663      -0.00291989
C        7.09050000       6.82281000      10.24591990      -0.00259840      -0.00026130      -0.00291541
C        6.49957000       9.21083000      10.21360241      -0.00170512      -0.01394194      -0.00157699
C        5.90873000      11.59872000      10.14443706       0.02132019      -0.03216734       0.00052107
C       10.63575000       1.36451000      10.19788825       0.00774043      -0.00218366      -0.00280970
C       10.04482000       3.75253000      10.22537545       0.00098386      -0.00460142      -0.00172589
C        9.45390000       6.14055000      10.24590230       0.00365564       0.00061120      -0.00292737
C        8.86313000       8.52858000      10.22540718       0.00194695      -0.00461655      -0.00172158
C        8.27228000      10.91647000      10.14322210      -0.04059309      -0.01853274       0.00259568
C       12.99915000       0.68225000      10.10328861      -0.20217043      -0.04791985       0.00211117
C       12.40838000       3.07028000      10.14320984      -0.00372725       0.04149728       0.00258711
C       11.81745000       5.45830000      10.21358212      -0.00751093       0.00420774      -0.00157482
Li       0.39387237       1.36465794      11.88953370       0.00000150       0.00000238      -0.00022425
