173
Lattice="16.131299972 0.0 0.0 -8.065649986 13.970115572 0.0 0.0 0.0 24.0" Properties=species:S:1:pos:R:3:forces:R:3 energy=-1600.529313212244 free_energy=-1600.529313212244 stress="-0.05525125094599111 -1.3229297240571856e-05 8.962457759813114e-07 -1.3229297240571856e-05 -0.05524972782587977 9.754896895566982e-07 8.962457759813114e-07 9.754896895566982e-07 -7.724681173833558e-05" pbc="T T T"
C        0.00000000       0.00000000      14.53800057      -0.05802698      -0.63775703       0.00723348
C       -0.93779000       2.27420000      14.53702275      -0.52469777       0.37994682       0.00720654
C       -1.87575000       4.54839000      14.16490807       0.02568914       0.05258047       0.00217358
C       -2.81354000       6.82259000      13.77085062       0.21344299      -0.30482483       0.00018765
C       -3.75150000       9.09678000      13.65975035      -0.03278656       0.11106641       0.00253813
C       -4.68929000      11.37098000      13.94657267       0.15502673       0.07000687       0.00095372
C       -5.62724000      13.64517000      14.33921275       0.51564015      -0.39341023       0.00321250
C        1.50061000       1.94925000      14.53487353       0.58490612       0.27149764       0.00715469
C        0.56274000       4.22359000      14.33861560       0.08609366       0.63945707       0.00320969
C       -0.37521000       6.49778000      13.96102592       0.16613513       0.13668964       0.00039739
C       -1.31301000       8.77198000      13.66849279       0.13410892      -0.11164810       0.00309791
C       -2.25096000      11.04617000      13.69875854      -0.03282491       0.03200881       0.00149626
C       -3.18875000      13.32037000      13.96051935       0.03366399      -0.21360384       0.00036793
C        3.93910000       1.62445000      14.16258955       0.02123479      -0.04521340       0.00215158
C        3.00115000       3.89864000      14.14689502      -0.06889834       0.13461799       0.00176474
C        2.06335000       6.17284000      13.94531531      -0.14515888       0.10104792       0.00092705
C        1.12540000       8.44703000      13.69944208      -0.01116941      -0.04562567       0.00147072
C        0.18761000      10.72123000      13.58939373      -0.00371535       0.00294566       0.00795756
C       -0.75035000      12.99542000      13.66891833      -0.15892536      -0.05938520       0.00307222
C        6.37751000       1.29950000      13.76939807      -0.37692127      -0.03046904       0.00014744
C        5.43972000       3.57370000      13.77063226      -0.53233301      -0.07821293       0.00015177
C        4.50176000       5.84789000      13.70916446      -0.39252782      -0.30999400       0.00019483
C        3.56389000       8.12223000      13.66066623      -0.07445459      -0.08626351       0.00252264
C        2.62593000      10.39642000      13.67181134       0.03041293       0.17051483       0.00312007
C        1.68814000      12.67062000      13.70201602       0.04674206       0.00868075       0.00152182
C        8.81600000       0.97469000      13.66064348       0.11077035      -0.02574941       0.00251055
C        7.87804000       3.24889000      13.52487059      -0.14005362      -0.05480540       0.00226389
C        6.94025000       5.52309000      13.43070435      -0.40194495      -0.19951178       0.00240478
C        6.00230000       7.79728000      13.52705649       0.03770846       0.16119053       0.00229030
C        5.06450000      10.07148000      13.77449096       0.15410003       0.34318352       0.00023541
C        4.12655000      12.34567000      13.96591722      -0.20436497       0.07173143       0.00042886
C       11.25440000       0.64975000      13.94947044      -0.02121041      -0.17081729       0.00097974
C       10.31661000       2.92395000      13.71173880       0.46360886      -0.18436380       0.00025122
C        9.37866000       5.19814000      13.43189633       0.37657348      -0.24862918       0.00243915
C        8.44086000       7.47234000      13.43285625       0.02522996       0.45408039       0.00244672
C        7.50291000       9.74653000      13.77570764       0.19487455       0.49641768       0.00023382
C        6.56504000      12.02087000      14.16830298      -0.05245843      -0.01383803       0.00221873
C       13.69289000       0.32494000      14.34292738      -0.60676727      -0.24754735       0.00325568
C       12.75494000       2.59914000      14.15094974      -0.08153520      -0.13034401       0.00180450
C       11.81715000       4.87334000      13.77366349       0.32852284      -0.41916953       0.00020111
C       10.87919000       7.14753000      13.52647638       0.12284701      -0.10688342       0.00227401
C        9.94140000       9.42173000      13.71198253      -0.07522708       0.49301304       0.00023426
C        9.00344000      11.69592000      14.15100932       0.16294825      -0.01241992       0.00181310
C       -6.00238000      10.82949000      13.94764517      -0.36110281      -0.11675624       0.00058233
C       -6.94025000      13.10383000      14.38972758       0.03727326      -0.69627036       0.00106847
C        0.18761000       1.40791000      14.64021956       0.00487361       0.00027656       0.00044808
C       -0.75035000       3.68210000      14.39479385      -0.42159851       0.48406978       0.00082236
C       -1.68814000       5.95630000      13.97648550      -0.24329503      -0.17071607      -0.00031493
C       -2.62609000       8.23049000      13.67537372       0.05896796      -0.16740470       0.00188793
C       -3.56389000      10.50469000      13.75641556      -0.27113665       0.22253360      -0.00197561
C       -4.50184000      12.77888000      14.10358457      -0.11130224       0.04521184      -0.00108196
C        2.62601000       1.08296000      14.39327314       0.63993788       0.12785678       0.00079453
C        1.68822000       3.35716000      14.38682781       0.58313506       0.37754942       0.00102337
C        0.75027000       5.63135000      14.10312098       0.02004143      -0.12186479      -0.00107389
C       -0.18753000       7.90555000      13.76093115      -0.02316629      -0.37411739      -0.00157040
C       -1.12548000      10.17974000      13.61159866      -0.04315503       0.00385540       0.00251915
C       -2.06327000      12.45394000      13.76075047      -0.32359422       0.20486670      -0.00157365
C        5.06442000       0.75802000      13.97491908      -0.01990438       0.29523894      -0.00031083
C        4.12663000       3.03221000      14.04244108       0.44802074       0.20986323      -0.00020483
C        3.18875000       5.30655000      13.94465781       0.28472760      -0.25830280       0.00059067
C        2.25080000       7.58074000      13.75654283      -0.05634794      -0.34474109      -0.00195828
C        1.31301000       9.85494000      13.61317220       0.02169893      -0.03812760       0.00253886
C        0.37505000      12.12913000      13.61309920       0.03234365       0.03539381       0.00254835
C        7.50291000       0.43321000      13.67539588      -0.16515297       0.03218162       0.00189445
C        6.56512000       2.70741000      13.67245502      -0.10926199       0.03771650      -0.00051967
C        5.62716000       4.98160000      13.61972627      -0.03782291      -0.20165836      -0.00035174
C        4.68937000       7.25580000      13.60797269      -0.04344850      -0.18889157       0.00292019
C        3.75141000       9.52999000      13.67846655       0.11900631       0.13392861       0.00192537
C        2.81362000      11.80419000      13.76510584       0.33001914       0.17556264      -0.00153656
C        9.94132000       0.10827000      13.75921707       0.33325585       0.12433526      -0.00193495
C        9.00352000       2.38246000      13.60820287       0.19051426       0.06575783       0.00290966
C        8.06573000       4.65666000      13.41951616      -0.01874984      -0.14128227       0.00175406
C        7.12778000       6.93085000      13.42076425      -0.11649259       0.09398391       0.00176824
C        6.18990000       9.20519000      13.67698051       0.08951791       0.06344458      -0.00049642
C        5.25195000      11.47938000      13.98084906       0.26706224      -0.13414232      -0.00027443
C        4.31415000      13.75358000      14.10800350       0.09270075       0.07610425      -0.00104130
C       11.44201000       2.05766000      13.94846377       0.06900951       0.37270017       0.00059542
C       10.50406000       4.33185000      13.62231037       0.19575439       0.06210323      -0.00033210
C        9.56626000       6.60605000      13.42092765       0.13081653       0.05621071       0.00179165
C        8.62831000       8.88024000      13.62347245      -0.15220169       0.13010534      -0.00032541
C        7.69052000      11.15444000      14.04782604      -0.05284108      -0.49621831      -0.00018352
C        6.75256000      13.42863000      14.39803865      -0.20372456      -0.61259444       0.00085876
C       13.88042000       1.73271000      14.39066404      -0.62166185       0.32289136       0.00107519
C       12.94263000       4.00691000      14.04573950      -0.41165242       0.28675858      -0.00020699
C       12.00467000       6.28110000      13.67460893       0.01748490      -0.11233735      -0.00049878
C       11.06688000       8.55530000      13.60847978      -0.15317644       0.13450836       0.00292068
C        0.00000000       0.00000000      10.67533063      -0.06655961      -0.62136768       0.00263722
C       -0.93779000       2.27420000      10.67420050      -0.50516389       0.37427745       0.00262003
C       -1.87575000       4.54839000      10.36565601      -0.45161439       0.13043705      -0.00089324
C       -2.81354000       6.82259000      10.02772278      -0.06603285      -0.10424593       0.00022442
C       -3.75150000       9.09678000       9.94581443      -0.06034345       0.04894127       0.00206252
C       -4.68929000      11.37098000      10.19640028      -0.27520416      -0.04230427      -0.00197676
C       -5.62724000      13.64517000      10.53089879       0.25728620      -0.26684045       0.00009775
C        1.50061000       1.94925000      10.67190041       0.57917412       0.25495173       0.00256725
C        0.56274000       4.22359000      10.53008629       0.11343792       0.34701826       0.00007911
C       -0.37521000       6.49778000      10.22913624      -0.08586752      -0.15082740      -0.00454677
C       -1.31301000       8.77198000      10.00464106       0.04007201      -0.11013741      -0.00186210
C       -2.25096000      11.04617000      10.03180539      -0.11414098       0.07871580      -0.00355441
C       -3.18875000      13.32037000      10.22842032      -0.08333760       0.15003306      -0.00455399
C        3.93910000       1.62445000      10.36311152       0.33663986       0.32431665      -0.00091539
C        3.00115000       3.89864000      10.33847110       0.50954489       0.02782514      -0.00067109
C        2.06335000       6.17284000      10.19519341       0.17120890      -0.21121126      -0.00197473
C        1.12540000       8.44703000      10.03280118      -0.01103024      -0.13820480      -0.00351793
C        0.18761000      10.72123000       9.96887905      -0.00377577       0.00290019      -0.00288808
C       -0.75035000      12.99542000      10.00480979      -0.10738722       0.01867700      -0.00183957
C        6.37751000       1.29950000      10.02602835      -0.05907291       0.10841347       0.00021090
C        5.43972000       3.57370000       9.98276133       0.06344664      -0.00657091      -0.00289551
C        4.50176000       5.84789000       9.93660969       0.06185430      -0.19744793      -0.00163667
C        3.56389000       8.12223000       9.94700162      -0.00850387      -0.07729013       0.00207818
C        2.62593000      10.39642000      10.00797082       0.07845777       0.08772732      -0.00182729
C        1.68814000      12.67062000      10.03501196       0.13325230       0.06051107      -0.00350952
C        8.81600000       0.97469000       9.94650929       0.07053428       0.02855047       0.00205701
C        7.87804000       3.24889000       9.76950513      -0.03278218      -0.13914401      -0.00047253
C        6.94025000       5.52309000       9.66352091      -0.16929428      -0.12950958      -0.00327254
C        6.00230000       7.79728000       9.77203034      -0.09442182       0.10164143      -0.00045686
C        5.06450000      10.07148000      10.03155223       0.11899427      -0.00498995       0.00022974
C        4.12655000      12.34567000      10.23420862       0.17510818      -0.00304014      -0.00452356
C       11.25440000       0.64975000      10.19928108       0.09293015       0.26357022      -0.00196690
C       10.31661000       2.92395000       9.93894877       0.13857112       0.15873049      -0.00165322
C        9.37866000       5.19814000       9.66458529       0.19798444      -0.07783399      -0.00326207
C        8.44086000       7.47234000       9.66571943      -0.03452242       0.21395864      -0.00325465
C        7.50291000       9.74653000       9.98823649      -0.04500662      -0.05745348      -0.00287749
C        6.56504000      12.02087000      10.36946994       0.11117225      -0.46698986      -0.00086541
C       13.69289000       0.32494000      10.53493002      -0.36761719      -0.08245906       0.00016111
C       12.75494000       2.59914000      10.34271026      -0.28311190       0.42101008      -0.00063145
C       11.81715000       4.87334000       9.98586235      -0.03261908       0.06077188      -0.00287081
C       10.87919000       7.14753000       9.77120341       0.14067364       0.03057973      -0.00042169
C        9.94140000       9.42173000       9.93938402      -0.21278969       0.04423234      -0.00161124
C        9.00344000      11.69592000      10.34294867      -0.22182468      -0.45859467      -0.00062382
C       -3.00123000       5.41482000      10.12927886       0.10214548      -0.31294133      -0.00128301
C       -3.93902000       7.68901000       9.89237169       0.04232052      -0.15571170      -0.00273933
C       -4.87698000       9.96321000      10.01950536      -0.09855079       0.24273722      -0.00202869
C       -5.81477000      12.23740000      10.38169220       0.18232693      -0.09838082       0.00013946
C        1.31309000       0.54148000      10.67800453       0.39190103      -0.30522200      -0.00028217
C        0.37513000       2.81568000      10.67722575       0.07387120       0.49455179      -0.00029198
C       -0.56266000       5.08987000      10.40394417       0.04294846       0.19175721       0.00144253
C       -1.50061000       7.36407000      10.09040273       0.09664926      -0.12635083      -0.00124898
C       -2.43841000       9.63826000       9.98625016       0.00644174       0.00683875      -0.00320524
C       -3.37636000      11.91246000      10.16137960       0.04667186      -0.03233296      -0.00020955
C        3.75150000       0.21654000      10.40303935       0.13490285      -0.13142595       0.00143372
C        2.81370000       2.49073000      10.49075894       0.33366620       0.22994866      -0.00141158
C        1.87575000       4.76493000      10.37931513      -0.01101216       0.20393981       0.00013226
C        0.93787000       7.03926000      10.16160193       0.00556046       0.05250831      -0.00019298
C       -0.00008000       9.31346000       9.99764065       0.04293129      -0.01911074      -0.00314525
C       -0.93787000      11.58765000       9.99730095      -0.03588364      -0.02848735      -0.00314107
C       -1.87567000      13.86185000      10.08952970      -0.16550493      -0.01828527      -0.00123826
C        5.25203000       2.16593000      10.12640605      -0.31579850       0.06791034      -0.00130880
C        4.31424000       4.44012000      10.08333173      -0.34814618      -0.13605485      -0.00184338
C        3.37628000       6.71432000      10.01836437      -0.15564412      -0.21498356      -0.00202560
C        2.43849000       8.98851000       9.98828159      -0.01189303       0.01198337      -0.00317740
C        1.50053000      11.26271000       9.99970207      -0.00287052       0.04581679      -0.00312539
C        0.56274000      13.53690000       9.98771062      -0.00044783      -0.00915148      -0.00318025
C        7.69060000       1.84098000       9.89123161      -0.15525094       0.04150282      -0.00275134
C        6.75264000       4.11518000       9.76754450      -0.47609563      -0.13818742      -0.00104170
C        5.81485000       6.38937000       9.74934986      -0.33553832      -0.20540005      -0.00073445
C        4.87690000       8.66357000       9.89450472       0.11517721       0.12165762      -0.00274631
C        3.93902000      10.93790000      10.09485031       0.06295517       0.14189513      -0.00121462
C        3.00123000      13.21210000      10.16571261      -0.06040538      -0.02593256      -0.00018011
C       10.12892000       1.51618000      10.02070589       0.27321170      -0.03608578      -0.00204121
C        9.19113000       3.79037000       9.74980779       0.35301578      -0.18910455      -0.00072848
C        8.25318000       6.06457000       9.59971832       0.00622381       0.00040810       0.00192634
C        7.31538000       8.33876000       9.77153302       0.11788335       0.48577033      -0.00102023
C        6.37743000      10.61296000      10.13276058       0.22539659       0.23575554      -0.00126606
C        5.43964000      12.88715000      10.40897504      -0.19082593      -0.05350335       0.00149281
C       12.56749000       1.19123000      10.38409244      -0.17757813      -0.10606402       0.00015993
C       11.62954000       3.46543000      10.08688785       0.28568727      -0.23189247      -0.00181336
C       10.69174000       5.73962000       9.76989354       0.35628807      -0.34367813      -0.00101662
C        9.75379000       8.01382000       9.75105861      -0.01623890       0.39912295      -0.00071903
C        8.81600000      10.28801000      10.08799507       0.05675483       0.36269634      -0.00180177
C        7.87804000      12.56221000      10.49606912       0.03192606      -0.40958199      -0.00134074
C       15.00590000       0.86629000      10.68050302      -0.45768724      -0.18114649      -0.00023064
C       14.06803000       3.14062000      10.49414951      -0.36947488       0.18111316      -0.00136837
Li       0.18811906       1.40840884      12.50407219       0.00002082      -0.00000033      -0.00682036
