173
Lattice="16.131299972 0.0 0.0 -8.065649986 13.970115572 0.0 0.0 0.0 24.0" Properties=species:S:1:pos:R:3:forces:R:3 energy=-1600.0004668089027 free_energy=-1600.0004668089027 stress="-0.06752003865303574 3.233965794345199e-06 3.66146649786433e-18 3.233965794345199e-06 -0.06751953800396178 -2.6287949626002373e-18 3.66146649786433e-18 -2.6287949626002373e-18 -2.4588269724786847e-05" pbc="T T T"
C        0.00000000       0.00000000      13.87508430      -0.02678759      -0.18124675       0.00669583
C       -0.93779000       2.27420000      13.88766171      -0.19462406      -0.07613197       0.00213333
C       -1.87575000       4.54839000      13.87507473      -0.14501726       0.11565561       0.00670569
C       -2.81354000       6.82259000      13.87396579      -0.01115596      -0.00214856      -0.00498114
C       -3.75150000       9.09678000      13.87486491       0.00264026       0.00313887       0.00167544
C       -4.68929000      11.37098000      13.87473407      -0.00821822      -0.00902955      -0.00481039
C       -5.62724000      13.64517000      13.87338902       0.01942536       0.01800985       0.00863229
C        1.50061000       1.94925000      13.88766049       0.16469185      -0.12165766       0.00213673
C        0.56274000       4.22359000      13.88765822       0.02622023       0.20055605       0.00215835
C       -0.37521000       6.49778000      13.87338718       0.02700953       0.00071520       0.00853319
C       -1.31301000       8.77198000      13.87470873      -0.01196543       0.00191087      -0.00401902
C       -2.25096000      11.04617000      13.87503493       0.00472870      -0.00411244      -0.00123778
C       -3.18875000      13.32037000      13.87464773       0.00446370      -0.00811114      -0.00595773
C        3.93910000       1.62445000      13.87338877      -0.01324034      -0.02362699       0.00855170
C        3.00115000       3.89864000      13.87507563       0.17437206       0.07075525       0.00670726
C        2.06335000       6.17284000      13.87338781      -0.02473954       0.01155064       0.00861096
C        1.12540000       8.44703000      13.87464707       0.00239991       0.01051417      -0.00595563
C        0.18761000      10.72123000      13.87509003      -0.00428181       0.00300157       0.00008356
C       -0.75035000      12.99542000      13.87508960       0.00241285       0.00273867       0.00008471
C        6.37751000       1.29950000      13.87470784       0.00842962       0.00886709      -0.00401592
C        5.43972000       3.57370000      13.87396529      -0.00483129       0.01027713      -0.00497283
C        4.50176000       5.84789000      13.87395670       0.00585462      -0.00174117      -0.00505263
C        3.56389000       8.12223000      13.87473520       0.01050760      -0.00204132      -0.00481501
C        2.62593000      10.39642000      13.87503477       0.00593513      -0.00143722      -0.00123928
C        1.68814000      12.67062000      13.87508951      -0.00225590      -0.00371025       0.00008156
C        8.81600000       0.97469000      13.87503597      -0.00621088      -0.00114943      -0.00124091
C        7.87804000       3.24889000      13.87486495       0.00500310      -0.00351344       0.00167551
C        6.94025000       5.52309000      13.87480740      -0.00272342      -0.00354781       0.00368285
C        6.00230000       7.79728000      13.87498140       0.00120384       0.00072508       0.00105577
C        5.06450000      10.07148000      13.87486662      -0.00469065       0.00290847       0.00167023
C        4.12655000      12.34567000      13.87470781       0.00260140      -0.00844934      -0.00402117
C       11.25440000       0.64975000      13.87464778      -0.00823217      -0.00076099      -0.00596498
C       10.31661000       2.92395000      13.87473420      -0.01220827       0.01141531      -0.00481642
C        9.37866000       5.19814000      13.87497866       0.00192237       0.00093150       0.00105870
C        8.44086000       7.47234000      13.87534253      -0.00382494       0.00214711      -0.00165034
C        7.50291000       9.74653000      13.87480674       0.00065621       0.00538779       0.00368730
C        6.56504000      12.02087000      13.87396546       0.00593860      -0.00822443      -0.00496131
C       13.69289000       0.32494000      13.87339115      -0.01863897       0.01636952       0.00854574
C       12.75494000       2.59914000      13.87338867       0.00734708      -0.02552175       0.00862198
C       11.81715000       4.87334000      13.87395737       0.00095712       0.00461577      -0.00507067
C       10.87919000       7.14753000      13.87480565       0.00523690      -0.00326199       0.00368660
C        9.94140000       9.42173000      13.87498038      -0.00053162      -0.00169617       0.00105436
C        9.00344000      11.69592000      13.87395694      -0.00434677      -0.00146722      -0.00504381
C       -6.00238000      10.82949000      13.87470952       0.01193650      -0.00097385      -0.00402480
C       -6.94025000      13.10383000      13.87339290      -0.02381137      -0.00751349       0.00854583
C        0.18761000       1.40791000      13.88766358      -0.02846464      -0.20868858       0.00213182
C       -0.75035000       3.68210000      13.88765677      -0.15930143       0.12385542       0.00216378
C       -1.68814000       5.95630000      13.87338516      -0.01983882      -0.01641461       0.00862993
C       -2.62609000       8.23049000      13.87473415       0.00808250       0.00889789      -0.00481593
C       -3.56389000      10.50469000      13.87486490      -0.00219156      -0.00320625       0.00167236
C       -4.50184000      12.77888000      13.87396604       0.01086757       0.00188243      -0.00497755
C        2.62601000       1.08296000      13.87507855       0.14913542      -0.11495231       0.00669654
C        1.68822000       3.35716000      13.88765775       0.18741945       0.07834373       0.00216045
C        0.75027000       5.63135000      13.87507556       0.02580753       0.18651132       0.00670810
C       -0.18753000       7.90555000      13.87395547       0.00374782       0.00416119      -0.00505512
C       -1.12548000      10.17974000      13.87498081       0.00015826       0.00164557       0.00104903
C       -2.06327000      12.45394000      13.87480575      -0.00602294       0.00331970       0.00368364
C        5.06442000       0.75802000      13.87395655       0.00199440      -0.00570733      -0.00506036
C        4.12663000       3.03221000      13.87338801      -0.00148199       0.02726744       0.00861344
C        3.18875000       5.30655000      13.87338823       0.01390595      -0.02217785       0.00854549
C        2.25080000       7.58074000      13.87396545      -0.00314092       0.00161051      -0.00497431
C        1.31301000       9.85494000      13.87480563      -0.00179013      -0.00399106       0.00368416
C        0.37505000      12.12913000      13.87534270       0.00485503      -0.00228769      -0.00165242
C        7.50291000       0.43321000      13.87497992       0.00064057      -0.00012874       0.00105300
C        6.56512000       2.70741000      13.87473348       0.00562962      -0.01255764      -0.00481343
C        5.62716000       4.98160000      13.87464892       0.01117305       0.00061542      -0.00596178
C        4.68937000       7.25580000      13.87470954      -0.00425710       0.01137317      -0.00401512
C        3.75141000       9.52999000      13.87486667       0.00249547       0.00261468       0.00167116
C        2.81362000      11.80419000      13.87497888      -0.00294127       0.00225402       0.00105698
C        9.94132000       0.10827000      13.87480663       0.00538103       0.00218722       0.00368349
C        9.00352000       2.38246000      13.87486589       0.00163774       0.00428167       0.00166836
C        8.06573000       4.65666000      13.87503480      -0.00290657       0.00207986      -0.00124115
C        7.12778000       6.93085000      13.87509112       0.00162706       0.00415567       0.00008348
C        6.18990000       9.20519000      13.87503617      -0.00159151      -0.00537431      -0.00123636
C        5.25195000      11.47938000      13.87473405      -0.00726627      -0.00415404      -0.00481680
C        4.31415000      13.75358000      13.87395526      -0.00409366       0.00392080      -0.00505008
C       11.44201000       2.05766000      13.87396480      -0.00118100      -0.01146909      -0.00496155
C       10.50406000       4.33185000      13.87470857      -0.00531051      -0.00900078      -0.00401757
C        9.56626000       6.60605000      13.87508847      -0.00184078      -0.00218013       0.00008470
C        8.62831000       8.88024000      13.87509029       0.00369135      -0.00318690       0.00008148
C        7.69052000      11.15444000      13.87464874      -0.00466251      -0.00796251      -0.00596144
C        6.75256000      13.42863000      13.87339050       0.02589537      -0.00700226       0.00863527
C       13.88042000       1.73271000      13.87508077      -0.16969269      -0.06746245       0.00670584
C       12.94263000       4.00691000      13.87338818       0.00392969       0.02380069       0.00854619
C       12.00467000       6.28110000      13.87464886      -0.00470072       0.00786260      -0.00596147
C       11.06688000       8.55530000      13.87503487      -0.00495886       0.00413749      -0.00124105
C        0.00000000       0.00000000      10.12491570      -0.02678759      -0.18124675      -0.00669583
C       -0.93779000       2.27420000      10.11233829      -0.19462406      -0.07613197      -0.00213333
C       -1.87575000       4.54839000      10.12492527      -0.14501726       0.11565561      -0.00670569
C       -2.81354000       6.82259000      10.12603421      -0.01115596      -0.00214856       0.00498114
C       -3.75150000       9.09678000      10.12513509       0.00264026       0.00313887      -0.00167544
C       -4.68929000      11.37098000      10.12526593      -0.00821822      -0.00902955       0.00481039
C       -5.62724000      13.64517000      10.12661098       0.01942536       0.01800985      -0.00863229
C        1.50061000       1.94925000      10.11233951       0.16469185      -0.12165766      -0.00213673
C        0.56274000       4.22359000      10.11234178       0.02622023       0.20055605      -0.00215835
C       -0.37521000       6.49778000      10.12661282       0.02700953       0.00071520      -0.00853319
C       -1.31301000       8.77198000      10.12529127      -0.01196543       0.00191087       0.00401902
C       -2.25096000      11.04617000      10.12496507       0.00472870      -0.00411244       0.00123778
C       -3.18875000      13.32037000      10.12535227       0.00446370      -0.00811114       0.00595773
C        3.93910000       1.62445000      10.12661123      -0.01324034      -0.02362699      -0.00855170
C        3.00115000       3.89864000      10.12492437       0.17437206       0.07075525      -0.00670726
C        2.06335000       6.17284000      10.12661219      -0.02473954       0.01155064      -0.00861096
C        1.12540000       8.44703000      10.12535293       0.00239991       0.01051417       0.00595563
C        0.18761000      10.72123000      10.12490997      -0.00428181       0.00300157      -0.00008356
C       -0.75035000      12.99542000      10.12491040       0.00241285       0.00273867      -0.00008471
C        6.37751000       1.29950000      10.12529216       0.00842962       0.00886709       0.00401592
C        5.43972000       3.57370000      10.12603471      -0.00483129       0.01027713       0.00497283
C        4.50176000       5.84789000      10.12604330       0.00585462      -0.00174117       0.00505263
C        3.56389000       8.12223000      10.12526480       0.01050760      -0.00204132       0.00481501
C        2.62593000      10.39642000      10.12496523       0.00593513      -0.00143722       0.00123928
C        1.68814000      12.67062000      10.12491049      -0.00225590      -0.00371025      -0.00008156
C        8.81600000       0.97469000      10.12496403      -0.00621088      -0.00114943       0.00124091
C        7.87804000       3.24889000      10.12513505       0.00500310      -0.00351344      -0.00167551
C        6.94025000       5.52309000      10.12519260      -0.00272342      -0.00354781      -0.00368285
C        6.00230000       7.79728000      10.12501860       0.00120384       0.00072508      -0.00105577
C        5.06450000      10.07148000      10.12513338      -0.00469065       0.00290847      -0.00167023
C        4.12655000      12.34567000      10.12529219       0.00260140      -0.00844934       0.00402117
C       11.25440000       0.64975000      10.12535222      -0.00823217      -0.00076099       0.00596498
C       10.31661000       2.92395000      10.12526580      -0.01220827       0.01141531       0.00481642
C        9.37866000       5.19814000      10.12502134       0.00192237       0.00093150      -0.00105870
C        8.44086000       7.47234000      10.12465747      -0.00382494       0.00214711       0.00165034
C        7.50291000       9.74653000      10.12519326       0.00065621       0.00538779      -0.00368730
C        6.56504000      12.02087000      10.12603454       0.00593860      -0.00822443       0.00496131
C       13.69289000       0.32494000      10.12660885      -0.01863897       0.01636952      -0.00854574
C       12.75494000       2.59914000      10.12661133       0.00734708      -0.02552175      -0.00862198
C       11.81715000       4.87334000      10.12604263       0.00095712       0.00461577       0.00507067
C       10.87919000       7.14753000      10.12519435       0.00523690      -0.00326199      -0.00368660
C        9.94140000       9.42173000      10.12501962      -0.00053162      -0.00169617      -0.00105436
C        9.00344000      11.69592000      10.12604306      -0.00434677      -0.00146722       0.00504381
C       -6.00238000      10.82949000      10.12529048       0.01193650      -0.00097385       0.00402480
C       -6.94025000      13.10383000      10.12660710      -0.02381137      -0.00751349      -0.00854583
C        0.18761000       1.40791000      10.11233642      -0.02846464      -0.20868858      -0.00213182
C       -0.75035000       3.68210000      10.11234323      -0.15930143       0.12385542      -0.00216378
C       -1.68814000       5.95630000      10.12661484      -0.01983882      -0.01641461      -0.00862993
C       -2.62609000       8.23049000      10.12526585       0.00808250       0.00889789       0.00481593
C       -3.56389000      10.50469000      10.12513510      -0.00219156      -0.00320625      -0.00167236
C       -4.50184000      12.77888000      10.12603396       0.01086757       0.00188243       0.00497755
C        2.62601000       1.08296000      10.12492145       0.14913542      -0.11495231      -0.00669654
C        1.68822000       3.35716000      10.11234225       0.18741945       0.07834373      -0.00216045
C        0.75027000       5.63135000      10.12492444       0.02580753       0.18651132      -0.00670810
C       -0.18753000       7.90555000      10.12604453       0.00374782       0.00416119       0.00505512
C       -1.12548000      10.17974000      10.12501919       0.00015826       0.00164557      -0.00104903
C       -2.06327000      12.45394000      10.12519425      -0.00602294       0.00331970      -0.00368364
C        5.06442000       0.75802000      10.12604345       0.00199440      -0.00570733       0.00506036
C        4.12663000       3.03221000      10.12661199      -0.00148199       0.02726744      -0.00861344
C        3.18875000       5.30655000      10.12661177       0.01390595      -0.02217785      -0.00854549
C        2.25080000       7.58074000      10.12603455      -0.00314092       0.00161051       0.00497431
C        1.31301000       9.85494000      10.12519437      -0.00179013      -0.00399106      -0.00368416
C        0.37505000      12.12913000      10.12465730       0.00485503      -0.00228769       0.00165242
C        7.50291000       0.43321000      10.12502008       0.00064057      -0.00012874      -0.00105300
C        6.56512000       2.70741000      10.12526652       0.00562962      -0.01255764       0.00481343
C        5.62716000       4.98160000      10.12535108       0.01117305       0.00061542       0.00596178
C        4.68937000       7.25580000      10.12529046      -0.00425710       0.01137317       0.00401512
C        3.75141000       9.52999000      10.12513333       0.00249547       0.00261468      -0.00167116
C        2.81362000      11.80419000      10.12502112      -0.00294127       0.00225402      -0.00105698
C        9.94132000       0.10827000      10.12519337       0.00538103       0.00218722      -0.00368349
C        9.00352000       2.38246000      10.12513411       0.00163774       0.00428167      -0.00166836
C        8.06573000       4.65666000      10.12496520      -0.00290657       0.00207986       0.00124115
C        7.12778000       6.93085000      10.12490888       0.00162706       0.00415567      -0.00008348
C        6.18990000       9.20519000      10.12496383      -0.00159151      -0.00537431       0.00123636
C        5.25195000      11.47938000      10.12526595      -0.00726627      -0.00415404       0.00481680
C        4.31415000      13.75358000      10.12604474      -0.00409366       0.00392080       0.00505008
C       11.44201000       2.05766000      10.12603520      -0.00118100      -0.01146909       0.00496155
C       10.50406000       4.33185000      10.12529143      -0.00531051      -0.00900078       0.00401757
C        9.56626000       6.60605000      10.12491153      -0.00184078      -0.00218013      -0.00008470
C        8.62831000       8.88024000      10.12490971       0.00369135      -0.00318690      -0.00008148
C        7.69052000      11.15444000      10.12535126      -0.00466251      -0.00796251       0.00596144
C        6.75256000      13.42863000      10.12660950       0.02589537      -0.00700226      -0.00863527
C       13.88042000       1.73271000      10.12491923      -0.16969269      -0.06746245      -0.00670584
C       12.94263000       4.00691000      10.12661182       0.00392969       0.02380069      -0.00854619
C       12.00467000       6.28110000      10.12535114      -0.00470072       0.00786260       0.00596147
C       11.06688000       8.55530000      10.12496513      -0.00495886       0.00413749       0.00124105
Li       0.37514175       2.81575241      12.00000000       0.00000588       0.00001888       0.00000000
