173
Lattice="16.131299972 0.0 0.0 -8.065649986 13.970115572 0.0 0.0 0.0 24.0" Properties=species:S:1:pos:R:3:forces:R:3 energy=-1600.5293224245177 free_energy=-1600.5293224245177 stress="-0.055250498931144136 -1.3233192577723432e-05 8.958432421448161e-07 -1.3233192577723432e-05 -0.05524897762598299 9.758880283694178e-07 8.958432421448161e-07 9.758880283694178e-07 -7.698305610925219e-05" pbc="T T T"
C        0.00000000       0.00000000      14.53808835      -0.05807762      -0.63794682       0.00723745
C       -0.93779000       2.27420000      14.53710978      -0.52483247       0.38009145       0.00721087
C       -1.87575000       4.54839000      14.16490291       0.02599863       0.05231221       0.00274660
C       -2.81354000       6.82259000      13.77089054       0.21335350      -0.30478277       0.00029524
C       -3.75150000       9.09678000      13.65980704      -0.03274285       0.11098582       0.00270368
C       -4.68929000      11.37098000      13.94653506       0.15476805       0.07036246       0.00173696
C       -5.62724000      13.64517000      14.33923385       0.51578190      -0.39350494       0.00337192
C        1.50061000       1.94925000      14.53496001       0.58509838       0.27154531       0.00715761
C        0.56274000       4.22359000      14.33863655       0.08610135       0.63962759       0.00336841
C       -0.37521000       6.49778000      13.96098140       0.16619622       0.13626442       0.00103273
C       -1.31301000       8.77198000      13.66854386       0.13404235      -0.11155918       0.00310089
C       -2.25096000      11.04617000      13.69881692      -0.03275446       0.03192950       0.00139880
C       -3.18875000      13.32037000      13.96047494       0.03326443      -0.21344549       0.00100055
C        3.93910000       1.62445000      14.16258355       0.02084515      -0.04534725       0.00272333
C        3.00115000       3.89864000      14.14691155      -0.06919292       0.13442724       0.00216881
C        2.06335000       6.17284000      13.94527769      -0.14533939       0.10064878       0.00170755
C        1.12540000       8.44703000      13.69950072      -0.01113555      -0.04552500       0.00137108
C        0.18761000      10.72123000      13.58944042      -0.00371475       0.00294596       0.00804382
C       -0.75035000      12.99542000      13.66896992      -0.15881489      -0.05937238       0.00307301
C        6.37751000       1.29950000      13.76943756      -0.37683909      -0.03041128       0.00025139
C        5.43972000       3.57370000      13.77064172      -0.53249381      -0.07823788       0.00052922
C        4.50176000       5.84789000      13.70922193      -0.39232872      -0.31000735      -0.00001276
C        3.56389000       8.12223000      13.66072354      -0.07440628      -0.08618569       0.00268370
C        2.62593000      10.39642000      13.67186285       0.03036925       0.17041356       0.00312570
C        1.68814000      12.67062000      13.70207499       0.04663724       0.00865935       0.00142358
C        8.81600000       0.97469000      13.66070060       0.11067849      -0.02574601       0.00266982
C        7.87804000       3.24889000      13.52493097      -0.13999497      -0.05468356       0.00201785
C        6.94025000       5.52309000      13.43073041      -0.40196368      -0.19949040       0.00205668
C        6.00230000       7.79728000      13.52711722       0.03778627       0.16107925       0.00204544
C        5.06450000      10.07148000      13.77453142       0.15410954       0.34308599       0.00034241
C        4.12655000      12.34567000      13.96587406      -0.20402820       0.07199664       0.00106236
C       11.25440000       0.64975000      13.94943346      -0.02077115      -0.17077534       0.00176159
C       10.31661000       2.92395000      13.71179640       0.46352189      -0.18418622       0.00004604
C        9.37866000       5.19814000      13.43192289       0.37656390      -0.24865641       0.00209004
C        8.44086000       7.47234000      13.43288259       0.02525783       0.45408748       0.00210131
C        7.50291000       9.74653000      13.77571817       0.19493357       0.49657274       0.00061593
C        6.56504000      12.02087000      14.16829901      -0.05238167      -0.01343797       0.00279132
C       13.69289000       0.32494000      14.34294971      -0.60692153      -0.24762637       0.00341565
C       12.75494000       2.59914000      14.15096715      -0.08122501      -0.13050491       0.00221105
C       11.81715000       4.87334000      13.77367373       0.32862542      -0.41929872       0.00058259
C       10.87919000       7.14753000      13.52653737       0.12271157      -0.10689467       0.00202944
C        9.94140000       9.42173000      13.71204039      -0.07533707       0.49284950       0.00003095
C        9.00344000      11.69592000      14.15102696       0.16293318      -0.01207169       0.00222037
C       -6.00238000      10.82949000      13.94767348      -0.36114705      -0.11662483       0.00032319
C       -6.94025000      13.10383000      14.38979644       0.03730718      -0.69644905       0.00069255
C        0.18761000       1.40791000      14.64031937       0.00487687       0.00028007       0.00062545
C       -0.75035000       3.68210000      14.39485282      -0.42173277       0.48422253       0.00043963
C       -1.68814000       5.95630000      13.97649483      -0.24317010      -0.17083452      -0.00060660
C       -2.62609000       8.23049000      13.67543615       0.05896207      -0.16734789       0.00174785
C       -3.56389000      10.50469000      13.75646902      -0.27090945       0.22233079      -0.00244662
C       -4.50184000      12.77888000      14.10356210      -0.11151218       0.04541150      -0.00130508
C        2.62601000       1.08296000      14.39333160       0.64013911       0.12790005       0.00041273
C        1.68822000       3.35716000      14.38689550       0.58327568       0.37766487       0.00065026
C        0.75027000       5.63135000      14.10309843       0.01997183      -0.12214527      -0.00129733
C       -0.18753000       7.90555000      13.76095988      -0.02314184      -0.37392440      -0.00178339
C       -1.12548000      10.17974000      13.61165614      -0.04318562       0.00386513       0.00256036
C       -2.06327000      12.45394000      13.76077950      -0.32343886       0.20474820      -0.00178834
C        5.06442000       0.75802000      13.97492771      -0.02006993       0.29519134      -0.00059817
C        4.12663000       3.03221000      14.04247277       0.44808510       0.20995912      -0.00059212
C        3.18875000       5.30655000      13.94468540       0.28463732      -0.25840689       0.00033517
C        2.25080000       7.58074000      13.75659663      -0.05628620      -0.34444331      -0.00242775
C        1.31301000       9.85494000      13.61322993       0.02170581      -0.03815861       0.00258019
C        0.37505000      12.12913000      13.61315708       0.03236697       0.03541512       0.00259005
C        7.50291000       0.43321000      13.67545839      -0.16510048       0.03215840       0.00175752
C        6.56512000       2.70741000      13.67251122      -0.10912973       0.03776774      -0.00078242
C        5.62716000       4.98160000      13.61975836      -0.03776441      -0.20158553      -0.00032623
C        4.68937000       7.25580000      13.60803609      -0.04341884      -0.18885964       0.00290782
C        3.75141000       9.52999000      13.67852941       0.11895991       0.13389513       0.00178759
C        2.81362000      11.80419000      13.76513557       0.32984027       0.17548684      -0.00175259
C        9.94132000       0.10827000      13.75927093       0.33296777       0.12424031      -0.00240218
C        9.00352000       2.38246000      13.60826593       0.19047296       0.06576737       0.00289919
C        8.06573000       4.65666000      13.41951357      -0.01878402      -0.14143287       0.00227257
C        7.12778000       6.93085000      13.42076157      -0.11660612       0.09409338       0.00228862
C        6.18990000       9.20519000      13.67703783       0.08949694       0.06330140      -0.00076293
C        5.25195000      11.47938000      13.98085936       0.26710408      -0.13397583      -0.00056343
C        4.31415000      13.75358000      14.10798216       0.09297680       0.07618524      -0.00126399
C       11.44201000       2.05766000      13.94849203       0.06914428       0.37267558       0.00033819
C       10.50406000       4.33185000      13.62234304       0.19566219       0.06211893      -0.00030779
C        9.56626000       6.60605000      13.42092539       0.13096537       0.05625620       0.00231051
C        8.62831000       8.88024000      13.62350543      -0.15217027       0.13001604      -0.00030390
C        7.69052000      11.15444000      14.04785942      -0.05279178      -0.49632571      -0.00057392
C        6.75256000      13.42863000      14.39809935      -0.20379261      -0.61279228       0.00047042
C       13.88042000       1.73271000      14.39073287      -0.62183508       0.32295640       0.00070016
C       12.94263000       4.00691000      14.04577233      -0.41177004       0.28676749      -0.00059822
C       12.00467000       6.28110000      13.67466613       0.01737244      -0.11224742      -0.00076569
C       11.06688000       8.55530000      13.60854331      -0.15316399       0.13446708       0.00290577
C        0.00000000       0.00000000      10.67533785      -0.06656008      -0.62140758       0.00262915
C       -0.93779000       2.27420000      10.67420737      -0.50519738       0.37430009       0.00261232
C       -1.87575000       4.54839000      10.36563397      -0.45164141       0.13044063      -0.00075368
C       -2.81354000       6.82259000      10.02767719      -0.06600828      -0.10426520       0.00030015
C       -3.75150000       9.09678000       9.94576121      -0.06037319       0.04896704       0.00209705
C       -4.68929000      11.37098000      10.19638287      -0.27522934      -0.04237386      -0.00196950
C       -5.62724000      13.64517000      10.53089515       0.25723296      -0.26683678       0.00026769
C        1.50061000       1.94925000      10.67190621       0.57921045       0.25497097       0.00256057
C        0.56274000       4.22359000      10.53008244       0.11346225       0.34696954       0.00025021
C       -0.37521000       6.49778000      10.22914126      -0.08593062      -0.15072354      -0.00474460
C       -1.31301000       8.77198000      10.00458071       0.04009114      -0.11019753      -0.00194706
C       -2.25096000      11.04617000      10.03175077      -0.11419727       0.07879219      -0.00359674
C       -3.18875000      13.32037000      10.22842530      -0.08321709       0.15003475      -0.00475213
C        3.93910000       1.62445000      10.36308887       0.33665735       0.32433630      -0.00077613
C        3.00115000       3.89864000      10.33844151       0.50956515       0.02780786      -0.00055877
C        2.06335000       6.17284000      10.19517634       0.17128314      -0.21119639      -0.00196939
C        1.12540000       8.44703000      10.03274726      -0.01106911      -0.13828975      -0.00356089
C        0.18761000      10.72123000       9.96875371      -0.00377358       0.00290080      -0.00264094
C       -0.75035000      12.99542000      10.00475011      -0.10744739       0.01868953      -0.00192679
C        6.37751000       1.29950000      10.02598265      -0.05909948       0.10840169       0.00028532
C        5.43972000       3.57370000       9.98272226       0.06349971      -0.00656574      -0.00305606
C        4.50176000       5.84789000       9.93656479       0.06188566      -0.19743380      -0.00176805
C        3.56389000       8.12223000       9.94694885      -0.00851018      -0.07732777       0.00211147
C        2.62593000      10.39642000      10.00791151       0.07849923       0.08777477      -0.00191345
C        1.68814000      12.67062000      10.03495827       0.13334622       0.06052043      -0.00355323
C        8.81600000       0.97469000       9.94645601       0.07057136       0.02856335       0.00209161
C        7.87804000       3.24889000       9.76945066      -0.03278886      -0.13914242      -0.00050405
C        6.94025000       5.52309000       9.66345994      -0.16931434      -0.12952798      -0.00332516
C        6.00230000       7.79728000       9.77197612      -0.09441714       0.10164625      -0.00048742
C        5.06450000      10.07148000      10.03150673       0.11899825      -0.00495978       0.00030563
C        4.12655000      12.34567000      10.23421443       0.17504973      -0.00314627      -0.00472206
C       11.25440000       0.64975000      10.19926398       0.09288187       0.26362935      -0.00195969
C       10.31661000       2.92395000       9.93890369       0.13854529       0.15875092      -0.00178382
C        9.37866000       5.19814000       9.66452462       0.19801147      -0.07784056      -0.00331380
C        8.44086000       7.47234000       9.66565899      -0.03452812       0.21398494      -0.00330661
C        7.50291000       9.74653000       9.98819797      -0.04502864      -0.05750213      -0.00303723
C        6.56504000      12.02087000      10.36944861       0.11118047      -0.46701912      -0.00072736
C       13.69289000       0.32494000      10.53492774      -0.36759179      -0.08241419       0.00032914
C       12.75494000       2.59914000      10.34268150      -0.28310982       0.42103706      -0.00051974
C       11.81715000       4.87334000       9.98582389      -0.03265025       0.06081484      -0.00303068
C       10.87919000       7.14753000       9.77115000       0.14067361       0.03057263      -0.00045322
C        9.94140000       9.42173000       9.93933970      -0.21279448       0.04419846      -0.00174280
C        9.00344000      11.69592000      10.34291995      -0.22185257      -0.45860402      -0.00051092
C       -3.00123000       5.41482000      10.12924213       0.10219149      -0.31298530      -0.00123946
C       -3.93902000       7.68901000       9.89232379       0.04231041      -0.15572758      -0.00280574
C       -4.87698000       9.96321000      10.01945832      -0.09855430       0.24285194      -0.00190627
C       -5.81477000      12.23740000      10.38169229       0.18235288      -0.09851124      -0.00005453
C        1.31309000       0.54148000      10.67800464       0.39186551      -0.30519915      -0.00015009
C        0.37513000       2.81568000      10.67722562       0.07387036       0.49450928      -0.00016002
C       -0.56266000       5.08987000      10.40395397       0.04286914       0.19184905       0.00127867
C       -1.50061000       7.36407000      10.09036411       0.09673871      -0.12640808      -0.00112450
C       -2.43841000       9.63826000       9.98618991       0.00644160       0.00685866      -0.00320901
C       -3.37636000      11.91246000      10.16136462       0.04674453      -0.03236382      -0.00021359
C        3.75150000       0.21654000      10.40304892       0.13502036      -0.13140141       0.00127007
C        2.81370000       2.49073000      10.49074955       0.33372154       0.23000569      -0.00152443
C        1.87575000       4.76493000      10.37931491      -0.01091145       0.20402358      -0.00006164
C        0.93787000       7.03926000      10.16158742       0.00555053       0.05258615      -0.00019750
C       -0.00008000       9.31346000       9.99755040       0.04296178      -0.01913467      -0.00308827
C       -0.93787000      11.58765000       9.99721068      -0.03591920      -0.02850125      -0.00308368
C       -1.87567000      13.86185000      10.08949143      -0.16559855      -0.01833228      -0.00111504
C        5.25203000       2.16593000      10.12636880      -0.31585932       0.06789314      -0.00126548
C        4.31424000       4.44012000      10.08328136      -0.34827906      -0.13610709      -0.00165035
C        3.37628000       6.71432000      10.01831742      -0.15574072      -0.21504514      -0.00190330
C        2.43849000       8.98851000       9.98822239      -0.01190915       0.01197373      -0.00318266
C        1.50053000      11.26271000       9.99961247      -0.00286567       0.04585448      -0.00306896
C        0.56274000      13.53690000       9.98765111      -0.00042995      -0.00916099      -0.00318442
C        7.69060000       1.84098000       9.89118314      -0.15526020       0.04151970      -0.00281675
C        6.75264000       4.11518000       9.76748631      -0.47616452      -0.13822480      -0.00094821
C        5.81485000       6.38937000       9.74928898      -0.33559058      -0.20541225      -0.00065166
C        4.87690000       8.66357000       9.89445650       0.11519621       0.12165701      -0.00281087
C        3.93902000      10.93790000      10.09481237       0.06296111       0.14200134      -0.00108920
C        3.00123000      13.21210000      10.16569834      -0.06046862      -0.02598079      -0.00018333
C       10.12892000       1.51618000      10.02065850       0.27331642      -0.03614070      -0.00191728
C        9.19113000       3.79037000       9.74974674       0.35305364      -0.18914406      -0.00064477
C        8.25318000       6.06457000       9.59965307       0.00622473       0.00040907       0.00193939
C        7.31538000       8.33876000       9.77147529       0.11788567       0.48584946      -0.00092699
C        6.37743000      10.61296000      10.13272385       0.22541249       0.23581947      -0.00122048
C        5.43964000      12.88715000      10.40898595      -0.19086558      -0.05361832       0.00132909
C       12.56749000       1.19123000      10.38409304      -0.17770352      -0.10601987      -0.00003395
C       11.62954000       3.46543000      10.08683777       0.28580023      -0.23198501      -0.00161832
C       10.69174000       5.73962000       9.76983628       0.35635225      -0.34371869      -0.00092580
C        9.75379000       8.01382000       9.75099856      -0.01622509       0.39917322      -0.00063745
C        8.81600000      10.28801000      10.08794539       0.05677495       0.36283848      -0.00160818
C        7.87804000      12.56221000      10.49606131       0.03194824      -0.40966315      -0.00145582
C       15.00590000       0.86629000      10.68050432      -0.45765023      -0.18112607      -0.00010060
C       14.06803000       3.14062000      10.49414128      -0.36955502       0.18113468      -0.00148314
Li       0.18811954       1.40840924      12.50423916       0.00001948      -0.00000153      -0.00737192
