193
Lattice="17.043199539 0.0 0.0 -8.52159977 14.759843763 0.0 0.0 0.0 24.0" Properties=species:S:1:pos:R:3:forces:R:3 energy=-1786.6386792192877 free_energy=-1786.6386792192877 stress="-0.053007826606991444 -4.259682675064994e-05 -9.223301589786756e-07 -4.259682675064994e-05 -0.052961574251111254 2.1391570234309093e-07 -9.223301589786756e-07 2.1391570234309093e-07 -7.867298256741435e-05" pbc="T T T"
C        0.00000000       0.00000000      14.65104427      -0.34486948      -0.59567568      -0.00438594
C       -2.13040000       3.68996000      14.25832278      -0.27594966      -0.06869450       0.00385347
C       12.78240000       7.37992000      13.59636074       0.15558827      -0.26171787       0.00105972
C       -6.39120000      11.06988000      13.99754216       0.27724682      -0.12908965      -0.00131331
C        4.26080000       0.00000000      14.26375975       0.08235594      -0.28235073       0.00399726
C        2.13040000       3.68996000      14.43198000       0.40212249       0.70071749       0.00839761
C        0.00000000       7.37992000      13.79478438       0.33546456      -0.29528835       0.00743389
C       -2.13040000      11.06988000      13.60182046      -0.33276598       0.08419298       0.00059467
C        8.52160000       0.00000000      13.60457051      -0.30556900       0.00180695       0.00099730
C        6.39120000       3.68996000      13.80191053      -0.41533049       0.15089941       0.00759519
C        4.26080000       7.37992000      13.69149979      -0.08727519      -0.15388677       0.00585551
C        2.13040000      11.06988000      13.47761072       0.19217418       0.16161978       0.00247363
C       12.78240000       0.00000000      13.99966548      -0.25045643       0.17204082      -0.00147294
C       10.65200000       3.68996000      13.60307122       0.23643312      -0.24549683       0.00086366
C        8.52160000       7.37992000      13.47710168       0.03674507       0.24526917       0.00274872
C        6.39120000      11.06988000      13.90418778       0.19453065       0.33868232       0.00004237
C       -0.00009000       2.46002000      14.64974589      -0.34556247       0.59762219      -0.00489799
C       -2.13049000       6.14998000      13.89781295       0.20217415      -0.34494696      -0.00037000
C       -4.26089000       9.83995000      13.68495904      -0.08658139       0.15866984       0.00542949
C       -6.39129000      13.52991000      14.43057529       0.41103412      -0.70434187       0.00785665
C        4.26071000       2.46002000      14.26541575       0.08875261       0.27615936       0.00369774
C        2.13031000       6.14998000      13.99981775       0.27862579       0.12653205      -0.00154268
C       -0.00009000       9.83995000      13.47463346       0.04626082      -0.24661023       0.00230392
C       -2.13049000      13.52991000      13.79902599      -0.41287700      -0.15064091       0.00738609
C        8.52151000       2.46002000      13.60496375      -0.30316935       0.00117234       0.00059424
C        6.39111000       6.14998000      13.60742769      -0.32640075      -0.07911030       0.00030895
C        4.26071000       9.83995000      13.60397989       0.15515990       0.26153385       0.00066882
C        2.13031000      13.52991000      13.60539721       0.23789602       0.24527871       0.00040520
C       12.78231000       2.46002000      13.99763994      -0.24002567      -0.17364480      -0.00165461
C       10.65191000       6.14998000      13.47393183       0.19527650      -0.15895776       0.00219328
C        8.52151000       9.83995000      13.79766292       0.34276343       0.28735709       0.00723666
C        6.39111000      13.52991000      14.26255387      -0.27644026       0.06789065       0.00362892
C        2.13049000       1.22994000      14.65262868       0.68244316      -0.00023589      -0.00392088
C        0.00009000       4.91990000      14.25928032       0.18759101       0.20640951       0.00432678
C       -2.13031000       8.60986000      13.59689424       0.14372877      -0.26278523       0.00143196
C       -4.26071000      12.29982000      13.99834465      -0.03010663      -0.30138616      -0.00103005
C        6.39129000       1.22994000      13.90648545      -0.39348720       0.00246135       0.00044365
C        4.26089000       4.91990000      14.00269659      -0.02667013       0.30870300      -0.00106019
C        2.13049000       8.60986000      13.60410341       0.08993875      -0.32592452       0.00129315
C        0.00009000      12.29982000      13.47725963      -0.23976400       0.09328322       0.00312242
C       10.65208000       1.22994000      13.68962953       0.17224595       0.00261037       0.00627786
C        8.52168000       4.91990000      13.47861729      -0.24515265      -0.08218186       0.00295531
C        6.39129000       8.60986000      13.60417760       0.14278094       0.26544006       0.00143603
C        4.26089000      12.29982000      13.79904123       0.07384000       0.43924722       0.00784558
C       14.91288000       1.22994000      14.42949495      -0.81183318       0.00556722       0.00890447
C       12.78248000       4.91990000      13.79337404       0.08423328      -0.43500363       0.00784320
C       10.65208000       8.60986000      13.60092640       0.08911819       0.33428956       0.00110502
C        8.52168000      12.29982000      14.26188554       0.19660250      -0.20531196       0.00440193
C       15.62290000       2.46002000      14.49424906      -0.49888380       0.48617904       0.00686283
C       -3.55069000       6.14998000      13.75171310       0.20564390      -0.03724455       0.00487072
C       -5.68109000       9.83995000      13.75804029      -0.32213626       0.39454838       0.00430921
C        9.23170000      13.52991000      14.49649176      -0.16533347      -0.67664927       0.00693293
C        2.84050000       2.46002000      14.49904824       0.66270182       0.19341111       0.00700577
C        0.71010000       6.14998000      14.03337236      -0.33893888       0.02607628      -0.00075377
C       -1.42030000       9.83995000      13.52032519      -0.12230771      -0.01569617       0.00228022
C       -3.55069000      13.52991000      14.03604247       0.18637155       0.27396535      -0.00061067
C        7.10130000       2.46002000      13.76113555      -0.12447609      -0.15996790       0.00542119
C        4.97090000       6.14998000      13.76454734      -0.17618710      -0.47237294       0.00474595
C        2.84050000       9.83995000      13.52494009       0.07832364      -0.09735325       0.00231402
C        0.71010000      13.52991000      13.52549639       0.04369228       0.11198499       0.00235323
C       11.36210000       2.46002000      13.76035974       0.49805368       0.08113188       0.00427313
C        9.23170000       6.14998000      13.42727982      -0.00588073      -0.00400475       0.00456559
C        7.10130000       9.83995000      13.75846085      -0.07248268       0.19053546       0.00491135
C        4.97090000      13.52991000      14.03608348       0.14539696      -0.30424780      -0.00070184
C        0.71002000       1.23009000      14.75656221       0.00096650      -0.00172836      -0.00786707
C       -1.42038000       4.92005000      14.16034475      -0.24856032       0.44157494      -0.00839776
C       -3.55078000       8.61001000      13.59719693      -0.03321581       0.06627619      -0.00510473
C       -5.68118000      12.29997000      14.16738504      -0.01983975       0.03986546      -0.00511004
C        4.97082000       1.23009000      14.16765311       0.52448622      -0.00431500      -0.00878113
C        2.84042000       4.92005000      14.17040502      -0.02272986      -0.04357479      -0.00507566
C        0.71002000       8.61001000      13.60255003      -0.19479173      -0.39827222      -0.00866540
C       -1.42038000      12.29997000      13.60434441      -0.23572980       0.37423912      -0.00887492
C        9.23162000       1.23009000      13.60490229       0.08040052      -0.00464256      -0.00482298
C        7.10122000       4.92005000      13.60794970      -0.22984153      -0.38024842      -0.00860972
C        4.97082000       8.61001000      13.60510953      -0.03164970      -0.07238735      -0.00485974
C        2.84042000      12.29997000      13.60575383       0.45006640       0.01449390      -0.00843960
C       13.49242000       1.23009000      14.16776061       0.05882005       0.00032210      -0.00500450
C       11.36202000       4.92005000      13.60140577       0.44923941      -0.02678745      -0.00858913
C        9.23162000       8.61001000      13.60341756      -0.19775369       0.39507210      -0.00878491
C        7.10122000      12.29997000      14.16520055      -0.24920397      -0.45030047      -0.00857605
C        2.84059000       0.00000000      14.49783670       0.65965676      -0.19619965       0.00697550
C        0.71019000       3.68996000      14.49549446      -0.17986768       0.67925814       0.00692163
C       -1.42021000       7.37992000      13.75242002      -0.07505410      -0.19372067       0.00471879
C       -3.55061000      11.06988000      13.75871706      -0.18730388       0.47735479       0.00451831
C        7.10139000       0.00000000      13.76001650      -0.13237088       0.16120134       0.00511889
C        4.97099000       3.68996000      14.03924591       0.18896535      -0.27422317      -0.00056614
C        2.84059000       7.37992000      13.76226180      -0.32530957      -0.38728150       0.00426426
C        0.71019000      11.06988000      13.42722401      -0.00156683       0.00341617       0.00457331
C       11.36219000       0.00000000      13.76191579       0.49331622      -0.08125736       0.00457689
C        9.23179000       3.68996000      13.52526130       0.03493520      -0.11578667       0.00236427
C        7.10139000       7.37992000      13.52608185      -0.12519651       0.01466174       0.00244060
C        4.97099000      11.06988000      13.75882348       0.19793092       0.03190144       0.00539794
C       15.62299000       0.00000000      14.49644213      -0.50267539      -0.47601155       0.00694609
C       13.49259000       3.68996000      14.03172445       0.14421170       0.30648385      -0.00084182
C       11.36219000       7.37992000      13.51953241       0.06978831       0.09994657       0.00218754
C        9.23179000      11.06988000      14.03459494      -0.33632398      -0.02183004      -0.00063374
C        0.00000000       0.00000000      10.78720590      -0.31559492      -0.54677586       0.00296076
C       -2.13040000       3.68996000      10.44999543      -0.13248337       0.44159880      -0.00205914
C       12.78240000       7.37992000       9.84825229       0.11686122      -0.05570049      -0.00211909
C       -6.39120000      11.06988000      10.21277669      -0.23747499       0.12352513      -0.00194445
C        4.26080000       0.00000000      10.45611635       0.44462011       0.09972673      -0.00199376
C        2.13040000       3.68996000      10.60991452       0.22643605       0.41279359      -0.00199122
C        0.00000000       7.37992000      10.02323683      -0.20203732      -0.18955316      -0.00047435
C       -2.13040000      11.06988000       9.85012433      -0.17354849       0.31848371      -0.00011053
C        8.52160000       0.00000000       9.85778665      -0.10762664       0.07351706      -0.00203504
C        6.39120000       3.68996000      10.03157297      -0.05826844      -0.26879901      -0.00040079
C        4.26080000       7.37992000       9.93669670      -0.18860571      -0.32514322      -0.00312120
C        2.13040000      11.06988000       9.74173899       0.20360996       0.02302997      -0.00130455
C       12.78240000       0.00000000      10.21598763       0.22081912      -0.14471610      -0.00182356
C       10.65200000       3.68996000       9.85221625       0.34973674       0.00901072      -0.00013673
C        8.52160000       7.37992000       9.74105335      -0.08389284       0.18524100      -0.00123729
C        6.39120000      11.06988000      10.12418732      -0.03776172      -0.06361274      -0.00281603
C       -0.00009000       2.46002000      10.78584146      -0.31599864       0.55085891       0.00289678
C       -2.13049000       6.14998000      10.11635155      -0.02768595       0.05806069      -0.00304138
C       -4.26089000       9.83995000       9.92831010      -0.18743677       0.33062629      -0.00324447
C       -6.39129000      13.52991000      10.60786745       0.23945607      -0.41210650      -0.00205775
C        4.26071000       2.46002000      10.45822181       0.45378602      -0.10288944      -0.00199646
C        2.13031000       6.14998000      10.21587108      -0.23685373      -0.11713773      -0.00180075
C       -0.00009000       9.83995000       9.73811183      -0.07253610      -0.18597496      -0.00124706
C       -2.13049000      13.52991000      10.02796052      -0.06034481       0.26848709      -0.00037894
C        8.52151000       2.46002000       9.85826103      -0.10236804      -0.07613703      -0.00201497
C        6.39111000       6.14998000       9.85699540      -0.16075637      -0.31674936      -0.00008449
C        4.26071000       9.83995000       9.85739651       0.12143318       0.05148594      -0.00204113
C        2.13031000      13.52991000       9.85490873       0.35829080      -0.01465064      -0.00014055
C       12.78231000       2.46002000      10.21353053       0.22870390       0.14804882      -0.00180265
C       10.65191000       6.14998000       9.73741592       0.20202513      -0.02632968      -0.00126351
C        8.52151000       9.83995000      10.02661046      -0.19458912       0.19058886      -0.00036828
C        6.39111000      13.52991000      10.45513878      -0.12904558      -0.43902324      -0.00199046
C        2.13049000       1.22994000      10.78895090       0.62234436       0.00085367       0.00291714
C        0.00009000       4.91990000      10.45110729      -0.32217804       0.34126384      -0.00215007
C       -2.13031000       8.60986000       9.84882177      -0.01503512      -0.12534278      -0.00218627
C       -4.26071000      12.29982000      10.21360930       0.00527898       0.26904332      -0.00202255
C        6.39129000       1.22994000      10.12650254       0.07150630       0.00516985      -0.00285146
C        4.26089000       4.91990000      10.21923371       0.01093599      -0.25756423      -0.00190108
C        2.13049000       8.60986000       9.85333645      -0.19007473      -0.29654007      -0.00015663
C        0.00009000      12.29982000       9.74114805      -0.12641251       0.16919129      -0.00130401
C       10.65208000       1.22994000       9.93475787       0.36875875       0.00322895      -0.00325433
C        8.52168000       4.91990000       9.74273784      -0.12928003      -0.16330800      -0.00135477
C        6.39129000       8.60986000       9.85757734      -0.01576197       0.12988248      -0.00213111
C        4.26089000      12.29982000      10.02871124       0.25772904      -0.07781594      -0.00046274
C       14.91288000       1.22994000      10.60716826      -0.47297864       0.01112052      -0.00206669
C       12.78248000       4.91990000      10.02185944       0.26204079       0.08245181      -0.00054927
C       10.65208000       8.60986000       9.84930412      -0.19304952       0.31246648      -0.00018735
C        8.52168000      12.29982000      10.45418871      -0.31338269      -0.33112151      -0.00207925
C       16.33309000       1.22994000      10.78610861      -0.63756322       0.00628853      -0.00219623
C       14.20269000       4.91990000      10.20956090      -0.01632450      -0.26228492      -0.00073295
C       12.07229000       8.60986000       9.84987998       0.00847474       0.13374535      -0.00255241
C       -7.10130000      12.29982000      10.45271185       0.31835084      -0.33978935       0.00107124
C        3.55069000       1.22994000      10.61111310       0.47507709      -0.00336210       0.00144721
C        1.42030000       4.91990000      10.45358998       0.31012044       0.33921707       0.00108172
C       -0.71010000       8.60986000       9.84841273       0.18810928      -0.30724057      -0.00265435
C       -2.84050000      12.29982000      10.02576296      -0.26092284      -0.08192051      -0.00043447
C        7.81149000       1.22994000       9.93645808      -0.38365186       0.00283474      -0.00010100
C        5.68109000       4.91990000      10.03154456      -0.25624851       0.08855929      -0.00032001
C        3.55069000       8.60986000       9.85783496       0.00984741      -0.12439184      -0.00242248
C        1.42030000      12.29982000       9.74236015       0.12021937       0.16779755      -0.00379992
C       12.07229000       1.22994000      10.12290046      -0.07772331       0.00067506      -0.00037896
C        9.94189000       4.91990000       9.74030824       0.11697576      -0.16113473      -0.00392951
C        7.81149000       8.60986000       9.85390408       0.18662885       0.30442220      -0.00254543
C        5.68109000      12.29982000      10.21672419      -0.02408973       0.26243284      -0.00063424
C        1.42021000       0.00000000      10.78752361       0.32172884      -0.55430633      -0.00199740
C       -0.71019000       3.68996000      10.60495143      -0.23461577       0.40746181       0.00145475
C       -2.84059000       7.37992000       9.92578981       0.19782443      -0.33676770      -0.00020215
C       -4.97099000      11.06988000      10.11936642       0.04387641      -0.06671297      -0.00033249
C        5.68101000       0.00000000      10.21755499      -0.20896243      -0.15478023      -0.00059504
C        3.55061000       3.68996000      10.45736981       0.14441733       0.44490405       0.00115103
C        1.42021000       7.37992000      10.02607906       0.20509163      -0.18959344      -0.00034774
C       -0.71019000      11.06988000       9.73920548      -0.19780787       0.02654925      -0.00392185
C        9.94181000       0.00000000       9.85781294       0.10578658       0.07136768      -0.00233103
C        7.81141000       3.68996000       9.85663768      -0.35635793       0.01466296      -0.00232936
C        5.68101000       7.37992000       9.85923005      -0.11064641      -0.05473749      -0.00230389
C        3.55061000      11.06988000       9.85486193       0.17055839       0.31602913      -0.00237047
C       14.20261000       0.00000000      10.45415189      -0.44926155       0.10225379       0.00109851
C       12.07221000       3.68996000      10.02432577       0.06884657      -0.26805186      -0.00038580
C        9.94181000       7.37992000       9.73862724       0.08090672       0.18710233      -0.00396468
C        7.81141000      11.06988000      10.21563915       0.24367918       0.10985695      -0.00064228
C        1.42030000       2.46002000      10.78791023       0.30930722       0.54673164      -0.00211998
C       -0.71010000       6.14998000      10.21053049       0.23265434      -0.12326946      -0.00074635
C       -2.84050000       9.83995000       9.85040246      -0.11925575       0.05328759      -0.00251156
C       -4.97090000      13.52991000      10.45364590       0.13676195      -0.45398147       0.00110294
C        5.68109000       2.46002000      10.21967904      -0.21141708       0.14565705      -0.00060070
C        3.55069000       6.14998000      10.12567838       0.04130120       0.06409848      -0.00034567
C        1.42030000       9.83995000       9.74067431       0.08043899      -0.19101130      -0.00393931
C       -0.71010000      13.52991000       9.85455202      -0.35912062      -0.01600644      -0.00249422
C        9.94189000       2.46002000       9.85702500       0.10040414      -0.07498538      -0.00241173
C        7.81149000       6.14998000       9.74351200      -0.20828377      -0.02765244      -0.00377142
C        5.68109000       9.83995000       9.93509881       0.18802566       0.32557933      -0.00013295
C        3.55069000      13.52991000      10.02852099       0.05497889       0.26015009      -0.00031372
C       14.20269000       2.46002000      10.45135389      -0.44836623      -0.10573737       0.00106150
C       12.07229000       6.14998000       9.84743890       0.17240769      -0.32143428      -0.00264790
C        9.94189000       9.83995000      10.02461437       0.20180723       0.18003459      -0.00039013
C        7.81149000      13.52991000      10.60855656      -0.23550069      -0.41527811       0.00143108
Li       0.70968847       1.23022646      12.61709943       0.00000742      -0.00000345      -0.00066529
