193
Lattice="17.043199539 0.0 0.0 -8.52159977 14.759843763 0.0 0.0 0.0 24.0" Properties=species:S:1:pos:R:3:forces:R:3 energy=-1785.8099634863056 free_energy=-1785.8099634863056 stress="-0.06743687965061056 1.2832942302145177e-05 6.838831997774251e-19 1.2832942302145177e-05 -0.0674515201909569 9.491617153832737e-18 6.838831997774251e-19 9.491617153832737e-18 -2.3323877059817944e-05" pbc="T T T"
C        0.00000000       0.00000000      13.87506770      -0.09267471      -0.15837542       0.00680960
C       -2.13040000       3.68996000      13.87339294      -0.00638563      -0.02012475       0.00852547
C       12.78240000       7.37992000      13.87491475      -0.00007111       0.00021065       0.00225190
C       -6.39120000      11.06988000      13.87470430      -0.00799955      -0.00647635      -0.00458355
C        4.26080000       0.00000000      13.87339153      -0.01601671      -0.01457517       0.00852371
C        2.13040000       3.68996000      13.88765414       0.10305337       0.18050307       0.00214967
C        0.00000000       7.37992000      13.87395420      -0.00804961       0.00051774      -0.00505056
C       -2.13040000      11.06988000      13.87514801       0.00037403       0.00148006      -0.00186122
C        8.52160000       0.00000000      13.87491385      -0.00164467       0.00106744       0.00225922
C        6.39120000       3.68996000      13.87395403       0.00260760      -0.00573857      -0.00505328
C        4.26080000       7.37992000      13.87464011       0.00382111       0.00871009      -0.00614432
C        2.13040000      11.06988000      13.87512497      -0.00073040       0.00120633       0.00014364
C       12.78240000       0.00000000      13.87470388      -0.00366127      -0.00916180      -0.00458249
C       10.65200000       3.68996000      13.87514805      -0.00100222       0.00202417      -0.00186488
C        8.52160000       7.37992000      13.87512501      -0.00060777       0.00092386       0.00014655
C        6.39120000      11.06988000      13.87478375       0.00047291       0.00325439       0.00464013
C       -0.00009000       2.46002000      13.88764140      -0.20263120       0.00001141       0.00220327
C       -2.13049000       6.14998000      13.87395297       0.00920902       0.00613450      -0.00504076
C       -4.26089000       9.83995000      13.87514807       0.00430518      -0.00128232      -0.00186271
C       -6.39129000      13.52991000      13.87338943       0.02603137       0.00517097       0.00852070
C        4.26071000       2.46002000      13.87507972       0.18889405      -0.00004200       0.00678336
C        2.13031000       6.14998000      13.87339599       0.02609406      -0.00559210       0.00852565
C       -0.00009000       9.83995000      13.87491413       0.00532766      -0.00124730       0.00225530
C       -2.13049000      13.52991000      13.87470420       0.01546588       0.00225102      -0.00458083
C        8.52151000       2.46002000      13.87478408       0.00246784       0.00004661       0.00463433
C        6.39111000       6.14998000      13.87470358       0.01514889      -0.00257604      -0.00459089
C        4.26071000       9.83995000      13.87514806       0.00412713       0.00034147      -0.00186292
C        2.13031000      13.52991000      13.87512510       0.00497809      -0.00041495       0.00014509
C       12.78231000       2.46002000      13.87464030      -0.00406603      -0.00000199      -0.00613581
C       10.65191000       6.14998000      13.87512499       0.00481360       0.00005371       0.00014272
C        8.52151000       9.83995000      13.87491405       0.00528169       0.00039245       0.00226253
C        6.39111000      13.52991000      13.87395422       0.00901520      -0.00653376      -0.00505435
C        2.13049000       1.22994000      13.88763822       0.09600312      -0.17495044       0.00221524
C        0.00009000       4.91990000      13.87507802      -0.09970931       0.16417171       0.00678053
C       -2.13031000       8.60986000      13.87478511      -0.00649564       0.00288173       0.00462656
C       -4.26071000      12.29982000      13.87464080      -0.00313792      -0.00261620      -0.00614350
C        6.39129000       1.22994000      13.87395383      -0.00440544       0.01144784      -0.00504508
C        4.26089000       4.91990000      13.87339372      -0.02307265       0.02033279       0.00854061
C        2.13049000       8.60986000      13.87470397      -0.01511235       0.01260325      -0.00458765
C        0.00009000      12.29982000      13.87512525      -0.00768372       0.00507213       0.00014504
C       10.65208000       1.22994000      13.87514841      -0.00752958       0.00376109      -0.00186560
C        8.52168000       4.91990000      13.87491416      -0.00811604       0.00477680       0.00225755
C        6.39129000       8.60986000      13.87514842      -0.00662925       0.00472806      -0.00186450
C        4.26089000      12.29982000      13.87491438      -0.00722998       0.00581506       0.00226086
C       14.91288000       1.22994000      13.87339324      -0.01296834       0.02595800       0.00851640
C       12.78248000       4.91990000      13.87470424      -0.00998948       0.01510743      -0.00458390
C       10.65208000       8.60986000      13.87512542      -0.00709337       0.00505676       0.00014502
C        8.52168000      12.29982000      13.87395445      -0.01457364       0.00550683      -0.00505208
C       15.62290000       2.46002000      13.87507307      -0.18486460      -0.00169248       0.00675143
C       -3.55069000       6.14998000      13.87470321      -0.01175264      -0.00435491      -0.00457843
C       -5.68109000       9.83995000      13.87491419      -0.00190105      -0.00138798       0.00226536
C        9.23170000      13.52991000      13.87339331      -0.02219797       0.00352397       0.00846463
C        2.84050000       2.46002000      13.88765605       0.20653852      -0.00164225       0.00210992
C        0.71010000       6.14998000      13.87339658      -0.02201585      -0.00726887       0.00849452
C       -1.42030000       9.83995000      13.87514801      -0.00004881      -0.00131695      -0.00185704
C       -3.55069000      13.52991000      13.87395475      -0.00552122      -0.00822114      -0.00506931
C        7.10130000       2.46002000      13.87463972       0.00807284      -0.00162681      -0.00613450
C        4.97090000       6.14998000      13.87395292      -0.00493397       0.00454619      -0.00505055
C        2.84050000       9.83995000      13.87491372      -0.00125268      -0.00291217       0.00226457
C        0.71010000      13.52991000      13.87512511      -0.00087653      -0.00206040       0.00014399
C       11.36210000       2.46002000      13.87478379       0.00148235      -0.00170592       0.00464278
C        9.23170000       6.14998000      13.87512495      -0.00092641      -0.00165120       0.00014448
C        7.10130000       9.83995000      13.87514814      -0.00004265      -0.00288564      -0.00186449
C        4.97090000      13.52991000      13.87470368      -0.01117170       0.00060527      -0.00457691
C        0.71002000       1.23009000      13.88763935      -0.09618387      -0.18276384       0.00216750
C       -1.42038000       4.92005000      13.87339364       0.02286289       0.01223418       0.00849668
C       -3.55078000       8.61001000      13.87514841       0.00633275      -0.00341590      -0.00185798
C       -5.68118000      12.29997000      13.87395474       0.01482705      -0.00253855      -0.00506755
C        4.97082000       1.23009000      13.87339714       0.01308529       0.01793962       0.00847717
C        2.84042000       4.92005000      13.87507998       0.09929388       0.15618091       0.00675102
C        0.71002000       8.61001000      13.87470340       0.01477173       0.00450538      -0.00457605
C       -1.42038000      12.29997000      13.87491454       0.00693026      -0.00233618       0.00226289
C        9.23162000       1.23009000      13.87514838       0.00750548      -0.00436312      -0.00186405
C        7.10122000       4.92005000      13.87470333       0.01005213       0.00692042      -0.00457851
C        4.97082000       8.61001000      13.87478426       0.00614014      -0.00521578       0.00463908
C        2.84042000      12.29997000      13.87512538       0.00732738      -0.00305065       0.00014356
C       13.49242000       1.23009000      13.87395481       0.00387798       0.00336086      -0.00506405
C       11.36202000       4.92005000      13.87491388       0.00816016      -0.00330429       0.00226730
C        9.23162000       8.61001000      13.87512551       0.00722478      -0.00310262       0.00014284
C        7.10122000      12.29997000      13.87464024       0.00268523      -0.01079985      -0.00613903
C        2.84059000       0.00000000      13.87506745       0.08894738      -0.15995280       0.00675887
C        0.71019000       3.68996000      13.88765756      -0.10677595       0.17879868       0.00209726
C       -1.42021000       7.37992000      13.87463978      -0.00751198       0.00697280      -0.00613488
C       -3.55061000      11.06988000      13.87478399      -0.00423755       0.00156213       0.00464177
C        7.10139000       0.00000000      13.87470299      -0.00009842      -0.01090547      -0.00457864
C        4.97099000       3.68996000      13.87339599       0.00267191      -0.02193866       0.00850373
C        2.84059000       7.37992000      13.87395397       0.00431580      -0.00123476      -0.00505496
C        0.71019000      11.06988000      13.87512496      -0.00299353      -0.00056918       0.00014531
C       11.36219000       0.00000000      13.87491400      -0.00224429      -0.00060366       0.00226484
C        9.23179000       3.68996000      13.87514806      -0.00288431       0.00030823      -0.00186209
C        7.10139000       7.37992000      13.87491404      -0.00357118      -0.00156253       0.00226229
C        4.97099000      11.06988000      13.87514813      -0.00410648      -0.00031576      -0.00186362
C       15.62299000       0.00000000      13.87339428       0.01229951      -0.01618168       0.00847316
C       13.49259000       3.68996000      13.87395491      -0.00654458      -0.00741127      -0.00507131
C       11.36219000       7.37992000      13.87512516      -0.00324460      -0.00078086       0.00014874
C        9.23179000      11.06988000      13.87470370       0.00429758      -0.00818404      -0.00457622
C        0.00000000       0.00000000      10.12493230      -0.09267471      -0.15837542      -0.00680960
C       -2.13040000       3.68996000      10.12660706      -0.00638563      -0.02012475      -0.00852547
C       12.78240000       7.37992000      10.12508525      -0.00007111       0.00021065      -0.00225190
C       -6.39120000      11.06988000      10.12529570      -0.00799955      -0.00647635       0.00458355
C        4.26080000       0.00000000      10.12660847      -0.01601671      -0.01457517      -0.00852371
C        2.13040000       3.68996000      10.11234586       0.10305337       0.18050307      -0.00214967
C        0.00000000       7.37992000      10.12604580      -0.00804961       0.00051774       0.00505056
C       -2.13040000      11.06988000      10.12485199       0.00037403       0.00148006       0.00186122
C        8.52160000       0.00000000      10.12508615      -0.00164467       0.00106744      -0.00225922
C        6.39120000       3.68996000      10.12604597       0.00260760      -0.00573857       0.00505328
C        4.26080000       7.37992000      10.12535989       0.00382111       0.00871009       0.00614432
C        2.13040000      11.06988000      10.12487503      -0.00073040       0.00120633      -0.00014364
C       12.78240000       0.00000000      10.12529612      -0.00366127      -0.00916180       0.00458249
C       10.65200000       3.68996000      10.12485195      -0.00100222       0.00202417       0.00186488
C        8.52160000       7.37992000      10.12487499      -0.00060777       0.00092386      -0.00014655
C        6.39120000      11.06988000      10.12521625       0.00047291       0.00325439      -0.00464013
C       -0.00009000       2.46002000      10.11235860      -0.20263120       0.00001141      -0.00220327
C       -2.13049000       6.14998000      10.12604703       0.00920902       0.00613450       0.00504076
C       -4.26089000       9.83995000      10.12485193       0.00430518      -0.00128232       0.00186271
C       -6.39129000      13.52991000      10.12661057       0.02603137       0.00517097      -0.00852070
C        4.26071000       2.46002000      10.12492028       0.18889405      -0.00004200      -0.00678336
C        2.13031000       6.14998000      10.12660401       0.02609406      -0.00559210      -0.00852565
C       -0.00009000       9.83995000      10.12508587       0.00532766      -0.00124730      -0.00225530
C       -2.13049000      13.52991000      10.12529580       0.01546588       0.00225102       0.00458083
C        8.52151000       2.46002000      10.12521592       0.00246784       0.00004661      -0.00463433
C        6.39111000       6.14998000      10.12529642       0.01514889      -0.00257604       0.00459089
C        4.26071000       9.83995000      10.12485194       0.00412713       0.00034147       0.00186292
C        2.13031000      13.52991000      10.12487490       0.00497809      -0.00041495      -0.00014509
C       12.78231000       2.46002000      10.12535970      -0.00406603      -0.00000199       0.00613581
C       10.65191000       6.14998000      10.12487501       0.00481360       0.00005371      -0.00014272
C        8.52151000       9.83995000      10.12508595       0.00528169       0.00039245      -0.00226253
C        6.39111000      13.52991000      10.12604578       0.00901520      -0.00653376       0.00505435
C        2.13049000       1.22994000      10.11236178       0.09600312      -0.17495044      -0.00221524
C        0.00009000       4.91990000      10.12492198      -0.09970931       0.16417171      -0.00678053
C       -2.13031000       8.60986000      10.12521489      -0.00649564       0.00288173      -0.00462656
C       -4.26071000      12.29982000      10.12535920      -0.00313792      -0.00261620       0.00614350
C        6.39129000       1.22994000      10.12604617      -0.00440544       0.01144784       0.00504508
C        4.26089000       4.91990000      10.12660628      -0.02307265       0.02033279      -0.00854061
C        2.13049000       8.60986000      10.12529603      -0.01511235       0.01260325       0.00458765
C        0.00009000      12.29982000      10.12487475      -0.00768372       0.00507213      -0.00014504
C       10.65208000       1.22994000      10.12485159      -0.00752958       0.00376109       0.00186560
C        8.52168000       4.91990000      10.12508584      -0.00811604       0.00477680      -0.00225755
C        6.39129000       8.60986000      10.12485158      -0.00662925       0.00472806       0.00186450
C        4.26089000      12.29982000      10.12508562      -0.00722998       0.00581506      -0.00226086
C       14.91288000       1.22994000      10.12660676      -0.01296834       0.02595800      -0.00851640
C       12.78248000       4.91990000      10.12529576      -0.00998948       0.01510743       0.00458390
C       10.65208000       8.60986000      10.12487458      -0.00709337       0.00505676      -0.00014502
C        8.52168000      12.29982000      10.12604555      -0.01457364       0.00550683       0.00505208
C       15.62290000       2.46002000      10.12492693      -0.18486460      -0.00169248      -0.00675143
C       -3.55069000       6.14998000      10.12529679      -0.01175264      -0.00435491       0.00457843
C       -5.68109000       9.83995000      10.12508581      -0.00190105      -0.00138798      -0.00226536
C        9.23170000      13.52991000      10.12660669      -0.02219797       0.00352397      -0.00846463
C        2.84050000       2.46002000      10.11234395       0.20653852      -0.00164225      -0.00210992
C        0.71010000       6.14998000      10.12660342      -0.02201585      -0.00726887      -0.00849452
C       -1.42030000       9.83995000      10.12485199      -0.00004881      -0.00131695       0.00185704
C       -3.55069000      13.52991000      10.12604525      -0.00552122      -0.00822114       0.00506931
C        7.10130000       2.46002000      10.12536028       0.00807284      -0.00162681       0.00613450
C        4.97090000       6.14998000      10.12604708      -0.00493397       0.00454619       0.00505055
C        2.84050000       9.83995000      10.12508628      -0.00125268      -0.00291217      -0.00226457
C        0.71010000      13.52991000      10.12487489      -0.00087653      -0.00206040      -0.00014399
C       11.36210000       2.46002000      10.12521621       0.00148235      -0.00170592      -0.00464278
C        9.23170000       6.14998000      10.12487505      -0.00092641      -0.00165120      -0.00014448
C        7.10130000       9.83995000      10.12485186      -0.00004265      -0.00288564       0.00186449
C        4.97090000      13.52991000      10.12529632      -0.01117170       0.00060527       0.00457691
C        0.71002000       1.23009000      10.11236065      -0.09618387      -0.18276384      -0.00216750
C       -1.42038000       4.92005000      10.12660636       0.02286289       0.01223418      -0.00849668
C       -3.55078000       8.61001000      10.12485159       0.00633275      -0.00341590       0.00185798
C       -5.68118000      12.29997000      10.12604526       0.01482705      -0.00253855       0.00506755
C        4.97082000       1.23009000      10.12660286       0.01308529       0.01793962      -0.00847717
C        2.84042000       4.92005000      10.12492002       0.09929388       0.15618091      -0.00675102
C        0.71002000       8.61001000      10.12529660       0.01477173       0.00450538       0.00457605
C       -1.42038000      12.29997000      10.12508546       0.00693026      -0.00233618      -0.00226289
C        9.23162000       1.23009000      10.12485162       0.00750548      -0.00436312       0.00186405
C        7.10122000       4.92005000      10.12529667       0.01005213       0.00692042       0.00457851
C        4.97082000       8.61001000      10.12521574       0.00614014      -0.00521578      -0.00463908
C        2.84042000      12.29997000      10.12487462       0.00732738      -0.00305065      -0.00014356
C       13.49242000       1.23009000      10.12604519       0.00387798       0.00336086       0.00506405
C       11.36202000       4.92005000      10.12508612       0.00816016      -0.00330429      -0.00226730
C        9.23162000       8.61001000      10.12487449       0.00722478      -0.00310262      -0.00014284
C        7.10122000      12.29997000      10.12535976       0.00268523      -0.01079985       0.00613903
C        2.84059000       0.00000000      10.12493255       0.08894738      -0.15995280      -0.00675887
C        0.71019000       3.68996000      10.11234244      -0.10677595       0.17879868      -0.00209726
C       -1.42021000       7.37992000      10.12536022      -0.00751198       0.00697280       0.00613488
C       -3.55061000      11.06988000      10.12521601      -0.00423755       0.00156213      -0.00464177
C        7.10139000       0.00000000      10.12529701      -0.00009842      -0.01090547       0.00457864
C        4.97099000       3.68996000      10.12660401       0.00267191      -0.02193866      -0.00850373
C        2.84059000       7.37992000      10.12604603       0.00431580      -0.00123476       0.00505496
C        0.71019000      11.06988000      10.12487504      -0.00299353      -0.00056918      -0.00014531
C       11.36219000       0.00000000      10.12508600      -0.00224429      -0.00060366      -0.00226484
C        9.23179000       3.68996000      10.12485194      -0.00288431       0.00030823       0.00186209
C        7.10139000       7.37992000      10.12508596      -0.00357118      -0.00156253      -0.00226229
C        4.97099000      11.06988000      10.12485187      -0.00410648      -0.00031576       0.00186362
C       15.62299000       0.00000000      10.12660572       0.01229951      -0.01618168      -0.00847316
C       13.49259000       3.68996000      10.12604509      -0.00654458      -0.00741127       0.00507131
C       11.36219000       7.37992000      10.12487484      -0.00324460      -0.00078086      -0.00014874
C        9.23179000      11.06988000      10.12529630       0.00429758      -0.00818404       0.00457622
Li       1.42025758       2.45990390      12.00000000      -0.00000886      -0.00002147       0.00000000
