193
Lattice="17.043199539 0.0 0.0 -8.52159977 14.759843763 0.0 0.0 0.0 24.0" Properties=species:S:1:pos:R:3:forces:R:3 energy=-1786.6386771568002 free_energy=-1786.6386771568002 stress="-0.053007959553716594 -4.259416492633145e-05 -9.222702204899327e-07 -4.259416492633145e-05 -0.05296171024331165 2.1393993274783966e-07 -9.222702204899327e-07 2.1393993274783966e-07 -7.87026073678439e-05" pbc="T T T"
C        0.00000000       0.00000000      14.65103865      -0.34486286      -0.59566370      -0.00436404
C       -2.13040000       3.68996000      14.25832030      -0.27597540      -0.06867589       0.00379549
C       12.78240000       7.37992000      13.59635369       0.15559050      -0.26171576       0.00104767
C       -6.39120000      11.06988000      13.99753880       0.27726304      -0.12910290      -0.00133698
C        4.26080000       0.00000000      14.26375707       0.08238520      -0.28236400       0.00393825
C        2.13040000       3.68996000      14.43197301       0.40211134       0.70069797       0.00841905
C        0.00000000       7.37992000      13.79478080       0.33544970      -0.29528334       0.00739544
C       -2.13040000      11.06988000      13.60181857      -0.33275293       0.08419403       0.00057402
C        8.52160000       0.00000000      13.60456294      -0.30556895       0.00180988       0.00098873
C        6.39120000       3.68996000      13.80190655      -0.41532024       0.15088776       0.00755748
C        4.26080000       7.37992000      13.69148491      -0.08728705      -0.15390741       0.00594237
C        2.13040000      11.06988000      13.47761037       0.19217039       0.16162049       0.00247086
C       12.78240000       0.00000000      13.99966191      -0.25047594       0.17204783      -0.00149572
C       10.65200000       3.68996000      13.60306926       0.23642773      -0.24548484       0.00084109
C        8.52160000       7.37992000      13.47710137       0.03674804       0.24526678       0.00274542
C        6.39120000      11.06988000      13.90418042       0.19453970       0.33869945       0.00003802
C       -0.00009000       2.46002000      14.64974065      -0.34555644       0.59761179      -0.00487949
C       -2.13049000       6.14998000      13.89780610       0.20218257      -0.34496217      -0.00037739
C       -4.26089000       9.83995000      13.68494474      -0.08659282       0.15868953       0.00551274
C       -6.39129000      13.52991000      14.43056862       0.41102377      -0.70432385       0.00787490
C        4.26071000       2.46002000      14.26541324       0.08878420       0.27617370       0.00363495
C        2.13031000       6.14998000      13.99981449       0.27864237       0.12654782      -0.00156972
C       -0.00009000       9.83995000      13.47463330       0.04626317      -0.24660742       0.00230082
C       -2.13049000      13.52991000      13.79902236      -0.41286496      -0.15063025       0.00734572
C        8.52151000       2.46002000      13.60495622      -0.30316893       0.00116929       0.00058528
C        6.39111000       6.14998000      13.60742559      -0.32638754      -0.07911129       0.00028723
C        4.26071000       9.83995000      13.60397245       0.15516232       0.26153183       0.00065857
C        2.13031000      13.52991000      13.60539516       0.23789037       0.24526685       0.00038267
C       12.78231000       2.46002000      13.99763670      -0.24004741      -0.17365108      -0.00168063
C       10.65191000       6.14998000      13.47393171       0.19527277      -0.15895834       0.00219013
C        8.52151000       9.83995000      13.79765933       0.34274845       0.28735158       0.00719671
C        6.39111000      13.52991000      14.26255144      -0.27646809       0.06787035       0.00356657
C        2.13049000       1.22994000      14.65262271       0.68242760      -0.00023563      -0.00389469
C        0.00009000       4.91990000      14.25927757       0.18758842       0.20643896       0.00427189
C       -2.13031000       8.60986000      13.59688702       0.14372613      -0.26278688       0.00142217
C       -4.26071000      12.29982000      13.99834096      -0.03010535      -0.30140473      -0.00104887
C        6.39129000       1.22994000      13.90647784      -0.39350822       0.00246176       0.00044151
C        4.26089000       4.91990000      14.00269268      -0.02666863       0.30872157      -0.00107914
C        2.13049000       8.60986000      13.60410125       0.08993099      -0.32591451       0.00127242
C        0.00009000      12.29982000      13.47725926      -0.23976343       0.09327962       0.00311945
C       10.65208000       1.22994000      13.68961459       0.17227005       0.00261027       0.00636585
C        8.52168000       4.91990000      13.47861684      -0.24515151      -0.08217846       0.00295292
C        6.39129000       8.60986000      13.60416995       0.14277859       0.26544225       0.00142858
C        4.26089000      12.29982000      13.79903714       0.07384605       0.43923376       0.00781056
C       14.91288000       1.22994000      14.42948776      -0.81180856       0.00556717       0.00892943
C       12.78248000       4.91990000      13.79337030       0.08423792      -0.43498941       0.00780695
C       10.65208000       8.60986000      13.60092439       0.08911067       0.33427961       0.00108544
C        8.52168000      12.29982000      14.26188267       0.19659977      -0.20534149       0.00434648
C       15.62290000       2.46002000      14.49424114      -0.49886101       0.48616303       0.00690381
C       -3.55069000       6.14998000      13.75170394       0.20566267      -0.03725565       0.00491596
C       -5.68109000       9.83995000      13.75803328      -0.32212270       0.39457746       0.00431008
C        9.23170000      13.52991000      14.49648375      -0.16533235      -0.67662286       0.00697368
C        2.84050000       2.46002000      14.49904012       0.66267774       0.19339963       0.00704639
C        0.71010000       6.14998000      14.03336406      -0.33894160       0.02603797      -0.00067185
C       -1.42030000       9.83995000      13.52032125      -0.12230902      -0.01568835       0.00229207
C       -3.55069000      13.52991000      14.03603402       0.18633938       0.27398813      -0.00052866
C        7.10130000       2.46002000      13.76112602      -0.12449436      -0.15997816       0.00546379
C        4.97090000       6.14998000      13.76454015      -0.17621867      -0.47237438       0.00474296
C        2.84050000       9.83995000      13.52493590       0.07831758      -0.09735824       0.00232565
C        0.71010000      13.52991000      13.52549206       0.04370026       0.11198258       0.00236659
C       11.36210000       2.46002000      13.76035248       0.49807379       0.08110503       0.00427536
C        9.23170000       6.14998000      13.42728065      -0.00588022      -0.00400450       0.00456713
C        7.10130000       9.83995000      13.75845152      -0.07248276       0.19055601       0.00495388
C        4.97090000      13.52991000      14.03607501       0.14543261      -0.30423203      -0.00062003
C        0.71002000       1.23009000      14.75656556       0.00096712      -0.00172885      -0.00801669
C       -1.42038000       4.92005000      14.16034291      -0.24858008       0.44160861      -0.00841780
C       -3.55078000       8.61001000      13.59718823      -0.03321255       0.06627075      -0.00513058
C       -5.68118000      12.29997000      14.16738458      -0.01981690       0.03982667      -0.00516812
C        4.97082000       1.23009000      14.16765091       0.52452473      -0.00431498      -0.00879969
C        2.84042000       4.92005000      14.17040444      -0.02270649      -0.04353583      -0.00513434
C        0.71002000       8.61001000      13.60254946      -0.19478648      -0.39825296      -0.00866974
C       -1.42038000      12.29997000      13.60434379      -0.23571594       0.37422436      -0.00887881
C        9.23162000       1.23009000      13.60489355       0.08039337      -0.00464259      -0.00485553
C        7.10122000       4.92005000      13.60794892      -0.22982757      -0.38023342      -0.00861460
C        4.97082000       8.61001000      13.60510070      -0.03164608      -0.07238137      -0.00489068
C        2.84042000      12.29997000      13.60575311       0.45004619       0.01448926      -0.00844505
C       13.49242000       1.23009000      14.16776012       0.05877364       0.00032176      -0.00506393
C       11.36202000       4.92005000      13.60140524       0.44921978      -0.02678254      -0.00859353
C        9.23162000       8.61001000      13.60341697      -0.19774805       0.39505265      -0.00878929
C        7.10122000      12.29997000      14.16519845      -0.24922358      -0.45033388      -0.00859538
C        2.84059000       0.00000000      14.49782868       0.65963338      -0.19618780       0.00701556
C        0.71019000       3.68996000      14.49548652      -0.17986569       0.67923100       0.00696258
C       -1.42021000       7.37992000      13.75241094      -0.07505396      -0.19374190       0.00476283
C       -3.55061000      11.06988000      13.75871018      -0.18733492       0.47735602       0.00451614
C        7.10139000       0.00000000      13.76000705      -0.13238895       0.16121156       0.00516196
C        4.97099000       3.68996000      14.03923727       0.18893272      -0.27424652      -0.00048343
C        2.84059000       7.37992000      13.76225446      -0.32529655      -0.38731253       0.00426693
C        0.71019000      11.06988000      13.42722483      -0.00156702       0.00341580       0.00457488
C       11.36219000       0.00000000      13.76190854       0.49333494      -0.08123065       0.00457668
C        9.23179000       3.68996000      13.52525705       0.03494302      -0.11578392       0.00237672
C        7.10139000       7.37992000      13.52607753      -0.12519847       0.01465369       0.00245342
C        4.97099000      11.06988000      13.75881397       0.19794942       0.03191225       0.00544141
C       15.62299000       0.00000000      14.49643404      -0.50265259      -0.47599578       0.00698774
C       13.49259000       3.68996000      14.03171624       0.14424631       0.30646769      -0.00076047
C       11.36219000       7.37992000      13.51952851       0.06978234       0.09995122       0.00219915
C        9.23179000      11.06988000      14.03458656      -0.33632731      -0.02179146      -0.00055174
C        0.00000000       0.00000000      10.78720036      -0.31558454      -0.54675782       0.00297038
C       -2.13040000       3.68996000      10.44999759      -0.13247920       0.44158428      -0.00204141
C       12.78240000       7.37992000       9.84825895       0.11686062      -0.05570066      -0.00210835
C       -6.39120000      11.06988000      10.21278280      -0.23746789       0.12350843      -0.00196139
C        4.26080000       0.00000000      10.45611823       0.44460545       0.09972358      -0.00197576
C        2.13040000       3.68996000      10.60991264       0.22642795       0.41277773      -0.00195932
C        0.00000000       7.37992000      10.02324499      -0.20203560      -0.18953789      -0.00049149
C       -2.13040000      11.06988000       9.85013152      -0.17354627       0.31848023      -0.00011280
C        8.52160000       0.00000000       9.85779293      -0.10762651       0.07351659      -0.00202445
C        6.39120000       3.68996000      10.03158076      -0.05825665      -0.26878988      -0.00041679
C        4.26080000       7.37992000       9.93670367      -0.18860257      -0.32513792      -0.00312918
C        2.13040000      11.06988000       9.74174595       0.20361178       0.02303108      -0.00129524
C       12.78240000       0.00000000      10.21599357       0.22080124      -0.14471818      -0.00184099
C       10.65200000       3.68996000       9.85222332       0.34973321       0.00901073      -0.00013869
C        8.52160000       7.37992000       9.74106031      -0.08389267       0.18524327      -0.00122799
C        6.39120000      11.06988000      10.12419373      -0.03776495      -0.06361836      -0.00281741
C       -0.00009000       2.46002000      10.78583603      -0.31598786       0.55084049       0.00290606
C       -2.13049000       6.14998000      10.11635829      -0.02768926       0.05806631      -0.00304182
C       -4.26089000       9.83995000       9.92831732      -0.18743359       0.33062091      -0.00325127
C       -6.39129000      13.52991000      10.60786573       0.23944766      -0.41209151      -0.00202665
C        4.26071000       2.46002000      10.45822358       0.45377106      -0.10288629      -0.00197835
C        2.13031000       6.14998000      10.21587712      -0.23684636      -0.11712104      -0.00181854
C       -0.00009000       9.83995000       9.73811894      -0.07253610      -0.18597728      -0.00123846
C       -2.13049000      13.52991000      10.02796846      -0.06033256       0.26847773      -0.00039549
C        8.52151000       2.46002000       9.85826727      -0.10236798      -0.07613658      -0.00200399
C        6.39111000       6.14998000       9.85700225      -0.16075491      -0.31674626      -0.00008528
C        4.26071000       9.83995000       9.85740277       0.12143273       0.05148609      -0.00202997
C        2.13031000      13.52991000       9.85491564       0.35828739      -0.01465043      -0.00014156
C       12.78231000       2.46002000      10.21353660       0.22868578       0.14805071      -0.00182042
C       10.65191000       6.14998000       9.73742308       0.20202714      -0.02633079      -0.00125519
C        8.52151000       9.83995000      10.02661843      -0.19458721       0.19057359      -0.00038511
C        6.39111000      13.52991000      10.45514068      -0.12904113      -0.43900904      -0.00197260
C        2.13049000       1.22994000      10.78894531       0.62232393       0.00085384       0.00292606
C        0.00009000       4.91990000      10.45110945      -0.32216761       0.34125311      -0.00213292
C       -2.13031000       8.60986000       9.84882841      -0.01503470      -0.12534241      -0.00217571
C       -4.26071000      12.29982000      10.21361540       0.00529004       0.26902866      -0.00203970
C        6.39129000       1.22994000      10.12650895       0.07151313       0.00516979      -0.00285342
C        4.26089000       4.91990000      10.21923960       0.01094693      -0.25754964      -0.00191872
C        2.13049000       8.60986000       9.85334356      -0.19007288      -0.29653665      -0.00015915
C        0.00009000      12.29982000       9.74115503      -0.12641449       0.16919226      -0.00129498
C       10.65208000       1.22994000       9.93476487       0.36875259       0.00322895      -0.00326257
C        8.52168000       4.91990000       9.74274478      -0.12928186      -0.16330898      -0.00134549
C        6.39129000       8.60986000       9.85758363      -0.01576165       0.12988214      -0.00212053
C        4.26089000      12.29982000      10.02871914       0.25771504      -0.07782176      -0.00047938
C       14.91288000       1.22994000      10.60716654      -0.47296146       0.01111983      -0.00203529
C       12.78248000       4.91990000      10.02186768       0.26202646       0.08245807      -0.00056676
C       10.65208000       8.60986000       9.84931142      -0.19304758       0.31246242      -0.00019043
C        8.52168000      12.29982000      10.45419071      -0.31337282      -0.33111097      -0.00206207
C       16.33309000       1.22994000      10.78610335      -0.63754377       0.00628827      -0.00219917
C       14.20269000       4.91990000      10.20956770      -0.01633472      -0.26226741      -0.00074730
C       12.07229000       8.60986000       9.84988765       0.00847402       0.13374364      -0.00256039
C       -7.10130000      12.29982000      10.45271540       0.31834267      -0.33979880       0.00104913
C        3.55069000       1.22994000      10.61111236       0.47507126      -0.00336163       0.00144062
C        1.42030000       4.91990000      10.45359347       0.31011248       0.33922667       0.00105986
C       -0.71010000       8.60986000       9.84842060       0.18810982      -0.30723778      -0.00265847
C       -2.84050000      12.29982000      10.02576888      -0.26092247      -0.08191774      -0.00041571
C        7.81149000       1.22994000       9.93646414      -0.38365402       0.00283477      -0.00009674
C        5.68109000       4.91990000      10.03155028      -0.25624811       0.08855682      -0.00030197
C        3.55069000       8.60986000       9.85784230       0.00984662      -0.12439037      -0.00243025
C        1.42030000      12.29982000       9.74236749       0.12021722       0.16779591      -0.00380529
C       12.07229000       1.22994000      10.12290548      -0.07771468       0.00067521      -0.00036071
C        9.94189000       4.91990000       9.74031566       0.11697378      -0.16113323      -0.00393422
C        7.81149000       8.60986000       9.85391175       0.18662958       0.30441940      -0.00255036
C        5.68109000      12.29982000      10.21673062      -0.02409925       0.26241603      -0.00064809
C        1.42021000       0.00000000      10.78751818       0.32171884      -0.55428882      -0.00199898
C       -0.71019000       3.68996000      10.60495094      -0.23461277       0.40745677       0.00144891
C       -2.84059000       7.37992000       9.92579631       0.19782527      -0.33676913      -0.00019865
C       -4.97099000      11.06988000      10.11937167       0.04387220      -0.06670579      -0.00031530
C        5.68101000       0.00000000      10.21756142      -0.20894304      -0.15477999      -0.00060870
C        3.55061000       3.68996000      10.45737309       0.14442870       0.44490140       0.00112940
C        1.42021000       7.37992000      10.02608496       0.20508931      -0.18959440      -0.00032808
C       -0.71019000      11.06988000       9.73921290      -0.19780576       0.02654816      -0.00392603
C        9.94181000       0.00000000       9.85782022       0.10578581       0.07136636      -0.00233891
C        7.81141000       3.68996000       9.85664529      -0.35635553       0.01466491      -0.00233480
C        5.68101000       7.37992000       9.85923730      -0.11064485      -0.05473741      -0.00231187
C        3.55061000      11.06988000       9.85486957       0.17055562       0.31602821      -0.00237556
C       14.20261000       0.00000000      10.45415529      -0.44926526       0.10224260       0.00107693
C       12.07221000       3.68996000      10.02433171       0.06884842      -0.26805036      -0.00036630
C        9.94181000       7.37992000       9.73863470       0.08090669       0.18710002      -0.00396862
C        7.81141000      11.06988000      10.21564561       0.24366939       0.10984062      -0.00065547
C        1.42030000       2.46002000      10.78790484       0.30929788       0.54671474      -0.00212240
C       -0.71010000       6.14998000      10.21053724       0.23264448      -0.12325207      -0.00076036
C       -2.84050000       9.83995000       9.85041007      -0.11925399       0.05328737      -0.00251956
C       -4.97090000      13.52991000      10.45364939       0.13677388      -0.45397896       0.00108091
C        5.68109000       2.46002000      10.21968540      -0.21139769       0.14565701      -0.00061469
C        3.55069000       6.14998000      10.12568337       0.04129672       0.06409110      -0.00032755
C        1.42030000       9.83995000       9.74068175       0.08043871      -0.19100882      -0.00394406
C       -0.71010000      13.52991000       9.85455970      -0.35911844      -0.01600850      -0.00249924
C        9.94189000       2.46002000       9.85703232       0.10040339      -0.07498402      -0.00241941
C        7.81149000       6.14998000       9.74351932      -0.20828119      -0.02765139      -0.00377703
C        5.68109000       9.83995000       9.93510489       0.18802667       0.32558112      -0.00012907
C        3.55069000      13.52991000      10.02852676       0.05498088       0.26014855      -0.00029532
C       14.20269000       2.46002000      10.45135745      -0.44837058      -0.10572587       0.00103976
C       12.07229000       6.14998000       9.84744682       0.17240506      -0.32143343      -0.00265175
C        9.94189000       9.83995000      10.02462032       0.20180456       0.18003581      -0.00037087
C        7.81149000      13.52991000      10.60855592      -0.23549827      -0.41527313       0.00142448
Li       0.70968846       1.23022644      12.61709186       0.00000746      -0.00000345      -0.00063272
