197
Lattice="17.219999313 0.0 0.0 -8.609999657 14.912956858 0.0 0.0 0.0 24.0" Properties=species:S:1:pos:R:3:forces:R:3 energy=-1823.090689659378 free_energy=-1823.090689659378 stress="-0.06634992983168653 3.2462376408189162e-06 2.674117586214891e-08 3.2462376408189162e-06 -0.06634640415899763 8.86562310677158e-09 2.674117586214891e-08 8.86562310677158e-09 9.947726449269057e-08" pbc="T T T"
C        0.00000000       0.00000000      14.02814032       0.00012406      -0.30042244       0.00796412
C       -1.23002000       2.13047000      14.02810031      -0.26011400       0.14906840       0.00794951
C       14.76004000       4.26078000      13.89956547      -0.00194781       0.01521237       0.00105142
C       13.53001000       6.39125000      13.78197747       0.01371702      -0.01187193      -0.00104736
C       -4.92001000       8.52171000      13.73999238      -0.00264272      -0.00108832      -0.00383418
C       11.06996000      10.65218000      13.78202486      -0.00275279       0.01257658      -0.00103279
C        9.84002000      12.78249000      13.89970045       0.01018683      -0.00307995       0.00107017
C        2.46005000       0.00000000      13.95819753       0.12264698      -0.07237697      -0.00027225
C        1.23002000       2.13047000      14.02804657       0.25938157       0.14826781       0.00792938
C        0.00009000       4.26078000      13.95810299      -0.00430773       0.14693299      -0.00029340
C       -1.22994000       6.39125000      13.82877371      -0.00034100       0.02105879       0.00157193
C       -2.45996000       8.52171000      13.75027828       0.00416507      -0.00498551      -0.00302394
C       -3.68999000      10.65218000      13.75030526      -0.00192100       0.00139083      -0.00301887
C       -4.91993000      12.78249000      13.82889042       0.01866407      -0.01006734       0.00158589
C        4.91993000       0.00000000      13.82877122       0.02292573      -0.00953299       0.00156711
C        3.68990000       2.13047000      13.89946319       0.01305843      -0.00544223       0.00102715
C        2.45996000       4.26078000      13.89943779       0.00004106       0.01713148       0.00102619
C        1.22994000       6.39125000      13.82869984       0.00382869       0.02391454       0.00155992
C       -0.00009000       8.52171000      13.75720928       0.00448914       0.00488954      -0.00550051
C       -1.23011000      10.65218000      13.73055646       0.00569172      -0.00202772      -0.00280868
C       -2.46005000      12.78249000      13.75725933       0.00654614       0.00219887      -0.00549146
C        7.37998000       0.00000000      13.75023628      -0.00714647      -0.00256141      -0.00302911
C        6.14995000       2.13047000      13.78188721      -0.01657165      -0.00719826      -0.00105915
C        4.92001000       4.26078000      13.79883598      -0.02823827      -0.01018373      -0.00256804
C        3.68999000       6.39125000      13.78188800      -0.01355198      -0.01213294      -0.00106713
C        2.45996000       8.52171000      13.75021883      -0.00518720      -0.00452766      -0.00303164
C        1.22994000      10.65218000      13.73054272      -0.00128007      -0.00438595      -0.00280265
C        0.00000000      12.78249000      13.73055115      -0.00006669      -0.00018732      -0.00279397
C        9.84002000       0.00000000      13.75026902       0.00719559      -0.00237665      -0.00301464
C        8.61000000       2.13047000      13.73993168       0.00031463       0.00193254      -0.00384372
C        7.38006000       4.26078000      13.73559358      -0.01074452       0.00376795      -0.00430514
C        6.15004000       6.39125000      13.73561841      -0.00438964      -0.00682025      -0.00431310
C        4.92001000       8.52171000      13.73995233       0.00315521      -0.00114859      -0.00384492
C        3.68999000      10.65218000      13.75027316       0.00171406       0.00209945      -0.00301308
C        2.46005000      12.78249000      13.75727472      -0.00199635       0.00016549      -0.00548491
C       12.30007000       0.00000000      13.82886287      -0.02403678      -0.01101534       0.00158777
C       11.07005000       2.13047000      13.78198398       0.01147402      -0.00650167      -0.00103427
C        9.84011000       4.26078000      13.73561281      -0.00034743       0.00427018      -0.00429737
C        8.61009000       6.39125000      13.71852153      -0.00537433       0.00022373      -0.00475496
C        7.38006000       8.52171000      13.73564713      -0.00171326       0.00813960      -0.00429980
C        6.15004000      10.65218000      13.78200616      -0.00180066       0.01308901      -0.00103051
C        4.92010000      12.78249000      13.82889752      -0.02472693      -0.00881791       0.00159432
C       14.75995000       0.00000000      13.95826270      -0.12272722      -0.07126174      -0.00024736
C       13.52993000       2.13047000      13.89964725      -0.00791257      -0.00699377       0.00106164
C       12.29999000       4.26078000      13.79894925       0.02298445      -0.00960154      -0.00253747
C       11.06996000       6.39125000      13.73564978       0.00584163      -0.00642811      -0.00429858
C        9.83994000       8.52171000      13.73565774      -0.00251270       0.00802619      -0.00429350
C        8.60991000      10.65218000      13.79898870       0.00151504       0.02451334      -0.00253168
C        7.37998000      12.78249000      13.89971207      -0.00898526      -0.00266575       0.00107790
C        0.00000000       1.42031000      14.06938340       0.00007814       0.00049155       0.00522753
C       -1.23002000       3.55078000      13.97756943      -0.07336263       0.15839403       0.00234467
C       -2.45996000       5.68109000      13.83706100      -0.00393270      -0.00909695       0.00248325
C       -3.68999000       7.81156000      13.75274927       0.00399197      -0.01170462      -0.00442764
C       -4.92001000       9.94202000      13.75276879      -0.00856078       0.00823625      -0.00442795
C       -6.14995000      12.07234000      13.83718947      -0.01139158       0.00664263       0.00249763
C       -7.37998000      14.20280000      13.97765653       0.10300574      -0.14754167       0.00235569
C        2.46005000       1.42031000      13.97754087       0.17485510      -0.01668461       0.00232747
C        1.23002000       3.55078000      13.97750643       0.07577497       0.15606462       0.00232438
C        0.00009000       5.68109000      13.87396839      -0.00446861      -0.02976889       0.00744063
C       -1.22994000       7.81156000      13.77333086      -0.00183212      -0.02857696       0.00091869
C       -2.45996000       9.94202000      13.73681731      -0.00272420      -0.00210581       0.00017928
C       -3.68990000      12.07234000      13.77340266      -0.02635555       0.01767122       0.00092115
C       -4.91993000      14.20280000      13.87408215      -0.02913781       0.01239086       0.00745346
C        4.91993000       1.42031000      13.83698977      -0.00647945       0.00954437       0.00246920
C        3.68990000       3.55078000      13.86988560       0.04394959       0.01922326       0.00647533
C        2.45996000       5.68109000      13.83695213       0.00491069      -0.00864314       0.00246694
C        1.22994000       7.81156000      13.77327635      -0.00150581      -0.02567833       0.00091948
C       -0.00009000       9.94202000      13.73216139       0.00115374      -0.00426215      -0.00025125
C       -1.23002000      12.07234000      13.73217911      -0.00289211       0.00716845      -0.00025187
C       -2.46005000      14.20280000      13.77332560      -0.02288940       0.01176225       0.00092451
C        7.37998000       1.42031000      13.75268155      -0.01252521       0.00300905      -0.00442589
C        6.14995000       3.55078000      13.76956500       0.00167005      -0.00069318      -0.00003245
C        4.92001000       5.68109000      13.76957883       0.00265377      -0.00184205      -0.00002978
C        3.68999000       7.81156000      13.75268471      -0.00396687      -0.01195124      -0.00443094
C        2.45996000       9.94202000      13.73678169      -0.00173037      -0.00007755       0.00018370
C        1.23002000      12.07234000      13.73218177       0.00320339       0.00640149      -0.00024837
C        0.00000000      14.20280000      13.73679103      -0.00017646      -0.00224473       0.00017740
C        9.84002000       1.42031000      13.75272110       0.01129981       0.00263960      -0.00442298
C        8.61000000       3.55078000      13.73294287       0.00213556      -0.00285338      -0.00050581
C        7.38006000       5.68109000      13.72639257      -0.00060373       0.00093621      -0.00051220
C        6.15004000       7.81156000      13.73297715       0.00050371      -0.00145891      -0.00050143
C        4.92001000       9.94202000      13.75273573       0.00760444       0.00764805      -0.00443100
C        3.69007000      12.07234000      13.77339158       0.02068396       0.01929517       0.00093371
C        2.46005000      14.20280000      13.77337326       0.02279701       0.01066610       0.00093597
C       12.29990000       1.42031000      13.83714772       0.01245971       0.00834361       0.00249043
C       11.06988000       3.55078000      13.76965808       0.00951026      -0.00118516      -0.00001597
C        9.83994000       5.68109000      13.72640488       0.00480418       0.00075900      -0.00050547
C        8.60991000       7.81156000      13.72642106       0.00544512      -0.00092084      -0.00050874
C        7.37989000       9.94202000      13.76967032       0.00906405      -0.00241694      -0.00001143
C        6.14995000      12.07234000      13.83719262       0.01615566       0.00586947       0.00249910
C        4.91993000      14.20280000      13.87414572       0.03004114       0.01382701       0.00747740
C       14.75995000       1.42031000      13.97763713      -0.17928795      -0.01476894       0.00235251
C       13.52993000       3.55078000      13.87006504      -0.03710697       0.01856082       0.00650670
C       12.29999000       5.68109000      13.76965134      -0.00317374      -0.00178253      -0.00000818
C       11.06996000       7.81156000      13.73300223      -0.00174750      -0.00107053      -0.00049434
C        9.83994000       9.94202000      13.76968074      -0.00444339      -0.00183499      -0.00000646
C        8.61000000      12.07234000      13.87014879      -0.00054689      -0.04178243       0.00652539
C        7.37998000      14.20280000      13.97767955      -0.10324245      -0.14776351       0.00235991
C        0.00000000       0.00000000      10.01784315      -0.00028242      -0.27483093      -0.00066811
C       -1.23002000       2.13047000      10.01793698      -0.23871500       0.13606863      -0.00064983
C       14.76004000       4.26078000      10.12508872      -0.04377320      -0.00425307       0.00003080
C       13.53001000       6.39125000      10.21411751       0.00300022       0.00451757      -0.00148671
C       -4.92001000       8.52171000      10.24214501       0.00190207       0.00160900       0.00124298
C       11.06996000      10.65218000      10.21402040       0.00873970      -0.00436387      -0.00150349
C        9.84002000      12.78249000      10.12489203      -0.02934366      -0.03176878      -0.00000049
C        2.46005000       0.00000000      10.08310674       0.18110318      -0.10529328       0.00113072
C        1.23002000       2.13047000      10.01794772       0.23747716       0.13568804      -0.00064718
C        0.00009000       4.26078000      10.08330667      -0.00147992       0.21449439       0.00116093
C       -1.22994000       6.39125000      10.18290593       0.00618398      -0.01179057      -0.00052112
C       -2.45996000       8.52171000      10.23856379       0.00168140      -0.00426360       0.00121170
C       -3.68999000      10.65218000      10.23852239      -0.00003797      -0.00018327       0.00120198
C       -4.91993000      12.78249000      10.18273562      -0.00685696       0.01232452      -0.00054913
C        4.91993000       0.00000000      10.18278975      -0.00805915      -0.00077756      -0.00054312
C        3.68990000       2.13047000      10.12503261       0.01909089       0.03992220       0.00002103
C        2.45996000       4.26078000      10.12512241       0.04825213      -0.00471995       0.00003340
C        1.22994000       6.39125000      10.18291195      -0.00195272      -0.01190282      -0.00051989
C       -0.00009000       8.52171000      10.23418764       0.00537520      -0.00540201       0.00024054
C       -1.23011000      10.65218000      10.25038027       0.00977252      -0.00407395       0.00078674
C       -2.46005000      12.78249000      10.23413264       0.00073195       0.00327174       0.00022502
C        7.37998000       0.00000000      10.23852220      -0.00556221      -0.00017442       0.00120297
C        6.14995000       2.13047000      10.21408568       0.00270881      -0.00650451      -0.00149625
C        4.92001000       4.26078000      10.19934220       0.01185119       0.01186323      -0.00204948
C        3.68999000       6.39125000      10.21414538      -0.00350618       0.00460376      -0.00148928
C        2.45996000       8.52171000      10.23856322      -0.00310371      -0.00384079       0.00121283
C        1.22994000      10.65218000      10.25037330       0.00132901      -0.00355274       0.00078777
C        0.00000000      12.78249000      10.25036097      -0.00030261      -0.00065436       0.00078493
C        9.84002000       0.00000000      10.23853018       0.00548917       0.00001775       0.00120647
C        8.61000000       2.13047000      10.24214864       0.00006316      -0.00386232       0.00124028
C        7.38006000       4.26078000      10.23910318       0.00052282       0.00620718       0.00043913
C        6.15004000       6.39125000      10.23911539       0.00107630      -0.00037647       0.00043850
C        4.92001000       8.52171000      10.24216921      -0.00204246       0.00187128       0.00124080
C        3.68999000      10.65218000      10.23854283       0.00534221       0.00042047       0.00120628
C        2.46005000      12.78249000      10.23414961       0.00435308       0.00400807       0.00022766
C       12.30007000       0.00000000      10.18280001       0.00910060      -0.00224768      -0.00054222
C       11.07005000       2.13047000      10.21407445      -0.00721740      -0.00853691      -0.00149156
C        9.84011000       4.26078000      10.23909140      -0.00493931       0.00385231       0.00044334
C        8.61009000       6.39125000      10.24575732      -0.00449758      -0.00246522       0.00091266
C        7.38006000       8.52171000      10.23908052      -0.00348049      -0.00275283       0.00043608
C        6.15004000      10.65218000      10.21405367      -0.00689621      -0.00637339      -0.00150125
C        4.92010000      12.78249000      10.18278530       0.00164384       0.01074812      -0.00054628
C       14.75995000       0.00000000      10.08309031      -0.18120739      -0.10423695       0.00112882
C       13.52993000       2.13047000      10.12498034      -0.01308532       0.04109584       0.00001909
C       12.29999000       4.26078000      10.19929148      -0.01163811       0.01256113      -0.00204488
C       11.06996000       6.39125000      10.23908766      -0.00004502       0.00008325       0.00044346
C        9.83994000       8.52171000      10.23906139      -0.00004738       0.00014479       0.00043688
C        8.60991000      10.65218000      10.19920339       0.00431889      -0.01791300      -0.00206318
C        7.37998000      12.78249000      10.12489011       0.03001776      -0.03097946      -0.00000058
C        1.23002000       0.71016000      10.01764999       0.23594561      -0.13586432       0.00051834
C        0.00000000       2.84062000      10.01775509       0.00049304       0.26785551       0.00053821
C       -1.22994000       4.97094000      10.12528868       0.03312742       0.02638341       0.00075449
C       -2.45996000       7.10140000      10.21475768      -0.00316486      -0.00063236      -0.00148356
C       -3.68999000       9.23187000      10.24321834      -0.00057323      -0.00184437       0.00140424
C       -4.91993000      11.36218000      10.21464581      -0.00506256       0.00206429      -0.00150190
C       -6.14995000      13.49265000      10.12507175       0.03842827       0.01518883       0.00072263
C        3.69007000       0.71016000      10.12513046       0.00077713      -0.04035813       0.00073155
C        2.46005000       2.84062000      10.08259607       0.17218754       0.09845355       0.00133237
C        1.23011000       4.97094000      10.12529770      -0.03771495       0.02694882       0.00075535
C        0.00009000       7.10140000      10.20110974      -0.00545508       0.01244456      -0.00217996
C       -1.22994000       9.23187000      10.24295371      -0.00361015       0.00105937       0.00110716
C       -2.45988000      11.36218000      10.24292071      -0.00604115       0.00542258       0.00109717
C       -3.68990000      13.49265000      10.20098162       0.00499764      -0.00576105      -0.00220320
C        6.14995000       0.71016000      10.21469842       0.00219071       0.00360894      -0.00149801
C        4.91993000       2.84062000      10.18171812      -0.01833557      -0.00714619      -0.00078463
C        3.68999000       4.97094000      10.18177514      -0.01147641      -0.01378064      -0.00077737
C        2.45996000       7.10140000      10.21476902       0.00440806      -0.00024605      -0.00148307
C        1.22994000       9.23187000      10.24294618      -0.00057966       0.00089480       0.00110871
C        0.00000000      11.36218000      10.25142667      -0.00212229       0.00482225       0.00145888
C       -1.23002000      13.49265000      10.24291500       0.00153121      -0.00203665       0.00109892
C        8.61000000       0.71016000      10.24320537       0.00019566       0.00140399       0.00140330
C        7.37998000       2.84062000      10.23620939      -0.00516482      -0.00540791       0.00070088
C        6.15004000       4.97094000      10.23049454      -0.00580396      -0.00225767      -0.00171593
C        4.92001000       7.10140000      10.23623933      -0.00315237      -0.00401402       0.00070157
C        3.68999000       9.23187000      10.24322972       0.00108203      -0.00178721       0.00140726
C        2.46005000      11.36218000      10.24293057      -0.00513000       0.00491511       0.00110160
C        1.23002000      13.49265000      10.24292041      -0.00029012      -0.00241534       0.00110173
C       11.07005000       0.71016000      10.21470282      -0.00205765       0.00249795      -0.00149511
C        9.84002000       2.84062000      10.23620563       0.00485905      -0.00617970       0.00070424
C        8.61009000       4.97094000      10.24511974      -0.00115724       0.00183514       0.00027431
C        7.38006000       7.10140000      10.24511995       0.00041564      -0.00139374       0.00027086
C        6.15004000       9.23187000      10.23620393       0.00070078       0.00318929       0.00069712
C        4.92010000      11.36218000      10.21469353      -0.00184516       0.00137038      -0.00149759
C        3.69007000      13.49265000      10.20102383      -0.01096260      -0.00698528      -0.00219938
C       13.52993000       0.71016000      10.12511025      -0.00172319      -0.03887785       0.00073132
C       12.29990000       2.84062000      10.18166445       0.02402160      -0.00554908      -0.00078111
C       11.06996000       4.97094000      10.23046286       0.01026751      -0.00023288      -0.00171090
C        9.83994000       7.10140000      10.24510433       0.00292183       0.00149298       0.00027274
C        8.60991000       9.23187000      10.23042365       0.00448956       0.00751471      -0.00172049
C        7.37998000      11.36218000      10.18158973       0.00783279       0.02495122      -0.00079775
C        6.14995000      13.49265000      10.12507241      -0.03394268       0.01712320       0.00072349
C       15.98997000       0.71016000      10.01763509      -0.23526530      -0.13602634       0.00051574
C       14.75995000       2.84062000      10.08257073      -0.17692689       0.09779837       0.00133002
C       13.53001000       4.97094000      10.18172982       0.01246562      -0.01435981      -0.00077494
C       12.29999000       7.10140000      10.23621130       0.00312554      -0.00427430       0.00070676
C       11.06996000       9.23187000      10.23617482      -0.00171860       0.00365294       0.00069858
C        9.84002000      11.36218000      10.18158001      -0.01017518       0.02261935      -0.00079763
C        8.61000000      13.49265000      10.08243635      -0.00005683      -0.20537487       0.00130324
Li       0.00000304       1.42009117      11.87615402      -0.00000215       0.00001491       0.00582427
