197
Lattice="17.219999313 0.0 0.0 -8.609999657 14.912956858 0.0 0.0 0.0 24.0" Properties=species:S:1:pos:R:3:forces:R:3 energy=-1822.9823632290238 free_energy=-1822.9823632290238 stress="-0.06739664384450217 3.2055766792948006e-06 6.706875025925145e-18 3.2055766792948006e-06 -0.0673930943848438 -2.4951438170010425e-18 6.706875025925145e-18 -2.4951438170010425e-18 -2.317443902338106e-05" pbc="T T T"
C        0.00000000       0.00000000      13.88767586      -0.17835135      -0.10308330       0.00212714
C       -1.23002000       2.13047000      13.87508065      -0.16035767       0.09142269       0.00671810
C       14.76004000       4.26078000      13.87395532      -0.00912513      -0.00080268      -0.00507598
C       13.53001000       6.39125000      13.87494452       0.00212416      -0.00023614       0.00140581
C       -4.92001000       8.52171000      13.87494402       0.00094467       0.00193518       0.00141239
C       11.06996000      10.65218000      13.87395671      -0.00705444      -0.00750092      -0.00508414
C        9.84002000      12.78249000      13.87508106       0.00039927      -0.18367097       0.00671192
C        2.46005000       0.00000000      13.88766492       0.17722080      -0.10389317       0.00214708
C        1.23002000       2.13047000      13.88766010      -0.00070409       0.20412227       0.00216092
C        0.00009000       4.26078000      13.87338285       0.01788157       0.01014465       0.00859091
C       -1.22994000       6.39125000      13.87471355      -0.01191321       0.00237960      -0.00443019
C       -2.45996000       8.52171000      13.87504335      -0.00233060      -0.00095384       0.00025986
C       -3.68999000      10.65218000      13.87471118      -0.00310962      -0.01695696      -0.00443049
C       -4.91993000      12.78249000      13.87338297       0.01579786       0.01671136       0.00859575
C        4.91993000       0.00000000      13.87338834      -0.00172160      -0.02045115       0.00858913
C        3.68990000       2.13047000      13.87508128       0.16455062       0.09329984       0.00670886
C        2.45996000       4.26078000      13.87338406      -0.02098845       0.01274967       0.00858736
C        1.22994000       6.39125000      13.87464028       0.00419217       0.00956620      -0.00615107
C       -0.00009000       8.52171000      13.87508441       0.00435734       0.00327903      -0.00068445
C       -1.23011000      10.65218000      13.87508216       0.00512646      -0.00321234      -0.00068319
C       -2.46005000      12.78249000      13.87463808       0.01113200      -0.00048650      -0.00615609
C        7.37998000       0.00000000      13.87471593       0.00822915       0.00765633      -0.00443008
C        6.14995000       2.13047000      13.87395796      -0.00128580       0.00655897      -0.00507916
C        4.92001000       4.26078000      13.87395566       0.00301806      -0.00102369      -0.00508104
C        3.68999000       6.39125000      13.87471549       0.01099498       0.00292268      -0.00443263
C        2.45996000       8.52171000      13.87508678       0.00023385       0.00104346      -0.00068277
C        1.22994000      10.65218000      13.87515593      -0.00005988      -0.00503486       0.00241423
C        0.00000000      12.78249000      13.87508446       0.00073105       0.00087033      -0.00068010
C        9.84002000       0.00000000      13.87504628       0.00041724       0.00123358       0.00026108
C        8.61000000       2.13047000      13.87494262      -0.00054585      -0.00268733       0.00140168
C        7.38006000       4.26078000      13.87477448      -0.00394523       0.00377073       0.00397015
C        6.15004000       6.39125000      13.87494400      -0.00163934      -0.00028452       0.00139809
C        4.92001000       8.52171000      13.87504565       0.00165846      -0.00031857       0.00025734
C        3.68999000      10.65218000      13.87508478      -0.00040770      -0.00535896      -0.00068211
C        2.46005000      12.78249000      13.87508482      -0.00069250       0.00103676      -0.00068037
C       12.30007000       0.00000000      13.87471244      -0.01352553       0.00837529      -0.00442988
C       11.07005000       2.13047000      13.87493907      -0.00437277      -0.00224320       0.00140879
C        9.84011000       4.26078000      13.87526780      -0.00818747       0.00470801      -0.00099450
C        8.61009000       6.39125000      13.87527196      -0.00552343       0.00033045      -0.00099957
C        7.38006000       8.52171000      13.87493976      -0.00595561       0.00243874       0.00140954
C        6.15004000      10.65218000      13.87470945      -0.00248228      -0.01571216      -0.00443447
C        4.92010000      12.78249000      13.87463711      -0.01195610      -0.00194647      -0.00616110
C       14.75995000       0.00000000      13.87338833       0.00673788      -0.02204268       0.00860435
C       13.52993000       2.13047000      13.87395585       0.00228516       0.00718770      -0.00508138
C       12.29999000       4.26078000      13.87477334      -0.00099350       0.00420947       0.00397689
C       11.06996000       6.39125000      13.87527447       0.00148554       0.00019316      -0.00100083
C        9.83994000       8.52171000      13.87477667       0.00084987       0.00209460       0.00398091
C        8.60991000      10.65218000      13.87395515       0.00914081      -0.00719173      -0.00508801
C        7.37998000      12.78249000      13.87338597      -0.01572519       0.01788749       0.00859935
C        0.00000000       1.42031000      13.88767081      -0.17846150       0.10345788       0.00211502
C       -1.23002000       3.55078000      13.87338529      -0.01341299      -0.02022332       0.00857650
C       -2.45996000       5.68109000      13.87471409       0.00249061       0.01283511      -0.00442827
C       -3.68999000       7.81156000      13.87504590       0.00150832       0.00083444       0.00026652
C       -4.92001000       9.94202000      13.87471323       0.01107215      -0.00432101      -0.00442908
C       -6.14995000      12.07234000      13.87338581      -0.02245522      -0.00164319       0.00858845
C       -7.37998000      14.20280000      13.88767147       0.00027863      -0.20605428       0.00211614
C        2.46005000       1.42031000      13.88766939       0.17434646       0.10144517       0.00211627
C        1.23002000       3.55078000      13.87507344      -0.00083862       0.17857307       0.00672007
C        0.00009000       5.68109000      13.87395595       0.00317652       0.00198496      -0.00510340
C       -1.22994000       7.81156000      13.87494126      -0.00503407      -0.00367884       0.00141555
C       -2.45996000       9.94202000      13.87493922      -0.00619694      -0.00315354       0.00140935
C       -3.68990000      12.07234000      13.87395373       0.00158910       0.00769545      -0.00509543
C       -4.91993000      14.20280000      13.87507714       0.15637172      -0.09471110       0.00671264
C        4.91993000       1.42031000      13.87338997      -0.00489055       0.02329874       0.00857008
C        3.68990000       3.55078000      13.87338635       0.02054509      -0.01970897       0.00856988
C        2.45996000       5.68109000      13.87395601      -0.00649671       0.00464069      -0.00509303
C        1.22994000       7.81156000      13.87477571       0.00080522      -0.00057566       0.00398948
C       -0.00009000       9.94202000      13.87527133       0.00096853      -0.00053363      -0.00099638
C       -1.23002000      12.07234000      13.87477299      -0.00065766       0.00585868       0.00398249
C       -2.46005000      14.20280000      13.87395653      -0.00032583      -0.00742040      -0.00508535
C        7.37998000       1.42031000      13.87471553       0.00815911      -0.00773216      -0.00442144
C        6.14995000       3.55078000      13.87463926       0.00967201      -0.00058711      -0.00614110
C        4.92001000       5.68109000      13.87471412      -0.00262959       0.01260369      -0.00441873
C        3.68999000       7.81156000      13.87494418       0.00061033      -0.00160563       0.00141948
C        2.45996000       9.94202000      13.87527394       0.00018287      -0.00120714      -0.00099411
C        1.23002000      12.07234000      13.87527338      -0.00013851       0.00465918      -0.00099638
C        0.00000000      14.20280000      13.87494369      -0.00102587       0.00131613       0.00141560
C        9.84002000       1.42031000      13.87504477      -0.00080484      -0.00150123       0.00025797
C        8.61000000       3.55078000      13.87508181       0.00288917      -0.00446140      -0.00067760
C        7.38006000       5.68109000      13.87508451      -0.00017507       0.00129435      -0.00067802
C        6.15004000       7.81156000      13.87504477      -0.00238446       0.00020537       0.00026412
C        4.92001000       9.94202000      13.87494057       0.00090520      -0.00151037       0.00140891
C        3.69007000      12.07234000      13.87477433       0.00006598       0.00469976       0.00398011
C        2.46005000      14.20280000      13.87494254      -0.00037691       0.00099955       0.00140919
C       12.29990000       1.42031000      13.87471208      -0.00338266      -0.00821206      -0.00443285
C       11.06988000       3.55078000      13.87507947       0.00737540      -0.00463127      -0.00067830
C        9.83994000       5.68109000      13.87515355       0.00502979       0.00062614       0.00241365
C        8.60991000       7.81156000      13.87508363       0.00532127      -0.00146560      -0.00067582
C        7.37989000       9.94202000      13.87470941      -0.00614370      -0.00507098      -0.00442668
C        6.14995000      12.07234000      13.87395176      -0.00115003       0.00918345      -0.00508119
C        4.91993000      14.20280000      13.87395401       0.00629593      -0.00866868      -0.00507848
C       14.75995000       1.42031000      13.87338923       0.00551738       0.02262418       0.00858266
C       13.52993000       3.55078000      13.87463919      -0.00389001      -0.00053951      -0.00615824
C       12.29999000       5.68109000      13.87508595      -0.00117451       0.00175425      -0.00067942
C       11.06996000       7.81156000      13.87508748       0.00006419      -0.00092448      -0.00067802
C        9.83994000       9.94202000      13.87464086      -0.00047623      -0.00880220      -0.00615599
C        8.61000000      12.07234000      13.87338702       0.02160563      -0.00193965       0.00858987
C        7.37998000      14.20280000      13.87508473      -0.16087400      -0.09273867       0.00669263
C        0.00000000       0.00000000      10.11232414      -0.17835135      -0.10308330      -0.00212714
C       -1.23002000       2.13047000      10.12491935      -0.16035767       0.09142269      -0.00671810
C       14.76004000       4.26078000      10.12604468      -0.00912513      -0.00080268       0.00507598
C       13.53001000       6.39125000      10.12505548       0.00212416      -0.00023614      -0.00140581
C       -4.92001000       8.52171000      10.12505598       0.00094467       0.00193518      -0.00141239
C       11.06996000      10.65218000      10.12604329      -0.00705444      -0.00750092       0.00508414
C        9.84002000      12.78249000      10.12491894       0.00039927      -0.18367097      -0.00671192
C        2.46005000       0.00000000      10.11233508       0.17722080      -0.10389317      -0.00214708
C        1.23002000       2.13047000      10.11233990      -0.00070409       0.20412227      -0.00216092
C        0.00009000       4.26078000      10.12661715       0.01788157       0.01014465      -0.00859091
C       -1.22994000       6.39125000      10.12528645      -0.01191321       0.00237960       0.00443019
C       -2.45996000       8.52171000      10.12495665      -0.00233060      -0.00095384      -0.00025986
C       -3.68999000      10.65218000      10.12528882      -0.00310962      -0.01695696       0.00443049
C       -4.91993000      12.78249000      10.12661703       0.01579786       0.01671136      -0.00859575
C        4.91993000       0.00000000      10.12661166      -0.00172160      -0.02045115      -0.00858913
C        3.68990000       2.13047000      10.12491872       0.16455062       0.09329984      -0.00670886
C        2.45996000       4.26078000      10.12661594      -0.02098845       0.01274967      -0.00858736
C        1.22994000       6.39125000      10.12535972       0.00419217       0.00956620       0.00615107
C       -0.00009000       8.52171000      10.12491559       0.00435734       0.00327903       0.00068445
C       -1.23011000      10.65218000      10.12491784       0.00512646      -0.00321234       0.00068319
C       -2.46005000      12.78249000      10.12536192       0.01113200      -0.00048650       0.00615609
C        7.37998000       0.00000000      10.12528407       0.00822915       0.00765633       0.00443008
C        6.14995000       2.13047000      10.12604204      -0.00128580       0.00655897       0.00507916
C        4.92001000       4.26078000      10.12604434       0.00301806      -0.00102369       0.00508104
C        3.68999000       6.39125000      10.12528451       0.01099498       0.00292268       0.00443263
C        2.45996000       8.52171000      10.12491322       0.00023385       0.00104346       0.00068277
C        1.22994000      10.65218000      10.12484407      -0.00005988      -0.00503486      -0.00241423
C        0.00000000      12.78249000      10.12491554       0.00073105       0.00087033       0.00068010
C        9.84002000       0.00000000      10.12495372       0.00041724       0.00123358      -0.00026108
C        8.61000000       2.13047000      10.12505738      -0.00054585      -0.00268733      -0.00140168
C        7.38006000       4.26078000      10.12522552      -0.00394523       0.00377073      -0.00397015
C        6.15004000       6.39125000      10.12505600      -0.00163934      -0.00028452      -0.00139809
C        4.92001000       8.52171000      10.12495435       0.00165846      -0.00031857      -0.00025734
C        3.68999000      10.65218000      10.12491522      -0.00040770      -0.00535896       0.00068211
C        2.46005000      12.78249000      10.12491518      -0.00069250       0.00103676       0.00068037
C       12.30007000       0.00000000      10.12528756      -0.01352553       0.00837529       0.00442988
C       11.07005000       2.13047000      10.12506093      -0.00437277      -0.00224320      -0.00140879
C        9.84011000       4.26078000      10.12473220      -0.00818747       0.00470801       0.00099450
C        8.61009000       6.39125000      10.12472804      -0.00552343       0.00033045       0.00099957
C        7.38006000       8.52171000      10.12506024      -0.00595561       0.00243874      -0.00140954
C        6.15004000      10.65218000      10.12529055      -0.00248228      -0.01571216       0.00443447
C        4.92010000      12.78249000      10.12536289      -0.01195610      -0.00194647       0.00616110
C       14.75995000       0.00000000      10.12661167       0.00673788      -0.02204268      -0.00860435
C       13.52993000       2.13047000      10.12604415       0.00228516       0.00718770       0.00508138
C       12.29999000       4.26078000      10.12522666      -0.00099350       0.00420947      -0.00397689
C       11.06996000       6.39125000      10.12472553       0.00148554       0.00019316       0.00100083
C        9.83994000       8.52171000      10.12522333       0.00084987       0.00209460      -0.00398091
C        8.60991000      10.65218000      10.12604485       0.00914081      -0.00719173       0.00508801
C        7.37998000      12.78249000      10.12661403      -0.01572519       0.01788749      -0.00859935
C        0.00000000       1.42031000      10.11232919      -0.17846150       0.10345788      -0.00211502
C       -1.23002000       3.55078000      10.12661471      -0.01341299      -0.02022332      -0.00857650
C       -2.45996000       5.68109000      10.12528591       0.00249061       0.01283511       0.00442827
C       -3.68999000       7.81156000      10.12495410       0.00150832       0.00083444      -0.00026652
C       -4.92001000       9.94202000      10.12528677       0.01107215      -0.00432101       0.00442908
C       -6.14995000      12.07234000      10.12661419      -0.02245522      -0.00164319      -0.00858845
C       -7.37998000      14.20280000      10.11232853       0.00027863      -0.20605428      -0.00211614
C        2.46005000       1.42031000      10.11233061       0.17434646       0.10144517      -0.00211627
C        1.23002000       3.55078000      10.12492656      -0.00083862       0.17857307      -0.00672007
C        0.00009000       5.68109000      10.12604405       0.00317652       0.00198496       0.00510340
C       -1.22994000       7.81156000      10.12505874      -0.00503407      -0.00367884      -0.00141555
C       -2.45996000       9.94202000      10.12506078      -0.00619694      -0.00315354      -0.00140935
C       -3.68990000      12.07234000      10.12604627       0.00158910       0.00769545       0.00509543
C       -4.91993000      14.20280000      10.12492286       0.15637172      -0.09471110      -0.00671264
C        4.91993000       1.42031000      10.12661003      -0.00489055       0.02329874      -0.00857008
C        3.68990000       3.55078000      10.12661365       0.02054509      -0.01970897      -0.00856988
C        2.45996000       5.68109000      10.12604399      -0.00649671       0.00464069       0.00509303
C        1.22994000       7.81156000      10.12522429       0.00080522      -0.00057566      -0.00398948
C       -0.00009000       9.94202000      10.12472867       0.00096853      -0.00053363       0.00099638
C       -1.23002000      12.07234000      10.12522701      -0.00065766       0.00585868      -0.00398249
C       -2.46005000      14.20280000      10.12604347      -0.00032583      -0.00742040       0.00508535
C        7.37998000       1.42031000      10.12528447       0.00815911      -0.00773216       0.00442144
C        6.14995000       3.55078000      10.12536074       0.00967201      -0.00058711       0.00614110
C        4.92001000       5.68109000      10.12528588      -0.00262959       0.01260369       0.00441873
C        3.68999000       7.81156000      10.12505582       0.00061033      -0.00160563      -0.00141948
C        2.45996000       9.94202000      10.12472606       0.00018287      -0.00120714       0.00099411
C        1.23002000      12.07234000      10.12472662      -0.00013851       0.00465918       0.00099638
C        0.00000000      14.20280000      10.12505631      -0.00102587       0.00131613      -0.00141560
C        9.84002000       1.42031000      10.12495523      -0.00080484      -0.00150123      -0.00025797
C        8.61000000       3.55078000      10.12491819       0.00288917      -0.00446140       0.00067760
C        7.38006000       5.68109000      10.12491549      -0.00017507       0.00129435       0.00067802
C        6.15004000       7.81156000      10.12495523      -0.00238446       0.00020537      -0.00026412
C        4.92001000       9.94202000      10.12505943       0.00090520      -0.00151037      -0.00140891
C        3.69007000      12.07234000      10.12522567       0.00006598       0.00469976      -0.00398011
C        2.46005000      14.20280000      10.12505746      -0.00037691       0.00099955      -0.00140919
C       12.29990000       1.42031000      10.12528792      -0.00338266      -0.00821206       0.00443285
C       11.06988000       3.55078000      10.12492053       0.00737540      -0.00463127       0.00067830
C        9.83994000       5.68109000      10.12484645       0.00502979       0.00062614      -0.00241365
C        8.60991000       7.81156000      10.12491637       0.00532127      -0.00146560       0.00067582
C        7.37989000       9.94202000      10.12529059      -0.00614370      -0.00507098       0.00442668
C        6.14995000      12.07234000      10.12604824      -0.00115003       0.00918345       0.00508119
C        4.91993000      14.20280000      10.12604599       0.00629593      -0.00866868       0.00507848
C       14.75995000       1.42031000      10.12661077       0.00551738       0.02262418      -0.00858266
C       13.52993000       3.55078000      10.12536081      -0.00389001      -0.00053951       0.00615824
C       12.29999000       5.68109000      10.12491405      -0.00117451       0.00175425       0.00067942
C       11.06996000       7.81156000      10.12491252       0.00006419      -0.00092448       0.00067802
C        9.83994000       9.94202000      10.12535914      -0.00047623      -0.00880220       0.00615599
C        8.61000000      12.07234000      10.12661298       0.02160563      -0.00193965      -0.00858987
C        7.37998000      14.20280000      10.12491527      -0.16087400      -0.09273867      -0.00669263
Li       1.23001759       0.71016823      12.00000000      -0.00000952      -0.00000856      -0.00000000
