13
Lattice="4.260799885 0.0 0.0 -2.130399942 3.689960941 0.0 0.0 0.0 24.0" Properties=species:S:1:pos:R:3:forces:R:3 stress="-0.013788074119424825 3.3017583275922438e-06 -1.6852074639884797e-07 3.3017583275922438e-06 -0.013791887681500739 2.9335092891651315e-07 -1.6852074639884797e-07 2.9335092891651315e-07 -0.01971327604582657" free_energy=-112.46996003 energy=-112.46885222 pbc="T T T"
C        0.00000000       0.00000000      13.67500000      -0.11492800      -0.19776100       0.19214900
C       -0.00002000       2.45999000      13.67500000      -0.11471300       0.19868900       0.19219600
C        2.13042000       1.22997000      13.67500000       0.22873000       0.00065000       0.19214900
C        2.84053000       2.45999000      13.67500000       0.00022000       0.00011900       0.03439700
C        0.71010000       1.23001000      13.67500000       0.00085300      -0.00147800       3.80083000
C        2.84055000       0.00000000      13.67500000      -0.00021300      -0.00013100       0.03439700
C        0.00000000       0.00000000      10.32500000      -0.03928700      -0.06835200      -0.20146400
C       -0.00002000       2.45999000      10.32500000      -0.03866700       0.06697400      -0.20147400
C        2.13042000       1.22997000      10.32500000       0.07883800      -0.00015200      -0.20146400
C        3.55067000       1.22997000      10.32500000      -0.07652700       0.00118900      -0.16482500
C        1.42025000       0.00000000      10.32500000       0.03844400      -0.06658600      -0.16478700
C        1.42030000       2.45995000      10.32500000       0.03723400       0.06686900      -0.16482500
Li       0.71010000       1.23001000      12.00000000       0.00001600      -0.00002800      -3.34727800
