13
Lattice="4.260799885 0.0 0.0 -2.130399942 3.689960941 0.0 0.0 0.0 24.0" Properties=species:S:1:pos:R:3:forces:R:3 stress="-0.015295361124270879 3.102030035563979e-06 -0.0 3.102030035563979e-06 -0.015296983916643605 -0.0 -0.0 -0.0 -0.022225814268978253" free_energy=-112.4898717 energy=-112.48831998 pbc="T T T"
C        0.00000000       0.00000000      13.50000000       0.08858700       0.15394700       0.55824400
C       -0.00002000       2.45999000      13.50000000      -0.17633200      -0.00007800       0.55815100
C        2.13042000       1.22997000      13.50000000       0.08675900      -0.15251100       0.55816400
C        2.84053000       2.45999000      13.50000000       0.17730100      -0.00044400       0.55826100
C        0.71010000       1.23001000      13.50000000      -0.08681800      -0.15437900       0.55818500
C        2.84055000       0.00000000      13.50000000      -0.08943500       0.15354200       0.55821200
C        0.00000000       0.00000000      10.50000000       0.08858700       0.15394700      -0.55824400
C       -0.00002000       2.45999000      10.50000000      -0.17633200      -0.00007800      -0.55815100
C        2.13042000       1.22997000      10.50000000       0.08675900      -0.15251100      -0.55816400
C        2.84053000       2.45999000      10.50000000       0.17730100      -0.00044400      -0.55826100
C        0.71010000       1.23001000      10.50000000      -0.08681800      -0.15437900      -0.55818500
C        2.84055000       0.00000000      10.50000000      -0.08943500       0.15354200      -0.55821200
Li       1.42030000       2.45999000      12.00000000      -0.00012500      -0.00015200      -0.00000000
