17
Lattice="4.920000076 0.0 0.0 -2.460000038 4.260845053 0.0 0.0 0.0 24.0" Properties=species:S:1:pos:R:3:MACE_forces:R:3 MACE_energy=-150.5155487060547 pbc="T T T"
C        0.00000000       0.00000000      13.90000000      -0.00189501      -0.27878332      -0.03904993
C        3.69000000       2.13042000      13.90000000      -0.24425869       0.14105603      -0.03903934
C        2.46000000       0.00000000      13.90000000      -0.00196493       0.00105528       0.01852095
C        1.23000000       2.13042000      13.90000000       0.24041709       0.14103286      -0.03904925
C       -0.00005000       1.42031000      13.90000000       0.00195851      -0.00116555       1.35534525
C       -1.23005000       3.55073000      13.90000000       0.11804067       0.06605206      -0.03455583
C        2.45995000       1.42031000      13.90000000       0.00189197      -0.13524975      -0.03455568
C        1.22995000       3.55073000      13.90000000      -0.11418325       0.06600246      -0.03453381
C        0.00000000       0.00000000      10.10000000       0.00089912      -0.25106889      -0.00725146
C        3.69000000       2.13042000      10.10000000      -0.21593606       0.12453361      -0.00727610
C        2.46000000       0.00000000      10.10000000       0.00101647      -0.00166764       0.09579910
C        1.23000000       2.13042000      10.10000000       0.21786878       0.12353542      -0.00727131
C        1.23005000       0.71011000      10.10000000       0.21133946      -0.12223723      -0.00156763
C        0.00005000       2.84053000      10.10000000      -0.00216676       0.24767911      -0.00159743
C        3.69000000       0.71011000      10.10000000      -0.21325350      -0.12207523      -0.00160005
C        2.46000000       2.84053000      10.10000000       0.00022194       0.00133623       0.09746821
Li      -0.00005000       1.42031000      12.00000000       0.00000394      -0.00003535      -1.31978559
49
Lattice="8.52159977 0.0 0.0 -4.260799885 7.379921881 0.0 0.0 0.0 24.0" Properties=species:S:1:pos:R:3:MACE_forces:R:3 MACE_energy=-447.8170471191406 pbc="T T T"
C        0.00000000       0.00000000      13.80648000      -0.08824550      -0.15219282      -0.00429594
C       -2.13040000       3.68996000      13.78778000      -0.01004626      -0.04215017       0.01543377
C        4.26080000       0.00000000      13.77986000      -0.03204278      -0.02745563       0.02414866
C        2.13040000       3.68996000      13.83736000       0.11630860       0.20130332       0.02471659
C        0.00000000       2.46002000      13.83475000      -0.23310305      -0.00150828       0.01899129
C       -2.13040000       6.14998000      13.78317000       0.04141683       0.01263696       0.01287593
C        4.26080000       2.46002000      13.80460000       0.17718798      -0.00171594       0.00788477
C        2.13040000       6.14998000      13.79014000       0.04374111      -0.01454765       0.00850124
C        2.13044000       1.23001000      13.83401000       0.11780110      -0.20655487       0.00528181
C        0.00004000       4.91997000      13.79131000      -0.08652793       0.14870645       0.03504014
C        6.39124000       1.23001000      13.79009000      -0.01104590       0.04394655       0.01231872
C        4.26084000       4.91997000      13.79650000      -0.03373498       0.03102397       0.00504663
C        7.10130000       2.46002000      13.80053000      -0.17478773      -0.00134389       0.02386437
C       -3.55069000       6.14998000      13.79197000      -0.04180789       0.01151779       0.02584160
C        2.84050000       2.46002000      13.83769000       0.23357508      -0.00105953       0.00650783
C        0.71010000       6.14998000      13.77993000      -0.03949875      -0.01519972       0.03664670
C        0.71015000       1.23001000      13.83745000      -0.11548254      -0.19953525       0.00750197
C       -1.42025000       4.91997000      13.78074000       0.03248335       0.02959829       0.03250202
C        4.97095000       1.23001000      13.78746000       0.00986623       0.04466285       0.01838825
C        2.84055000       4.91997000      13.80724000       0.08868812       0.15563938       0.00418095
C        2.84059000       0.00000000      13.79167000       0.08443820      -0.14789179       0.04923176
C        0.71019000       3.68996000      13.83310000      -0.12080238       0.20698217      -0.00340672
C        7.10139000       0.00000000      13.79173000       0.03192597      -0.03086353       0.03108381
C        4.97099000       3.68996000      13.79370000       0.00865923      -0.04330876       0.01799570
C        0.00000000       0.00000000      10.19352000      -0.08824566      -0.15219332       0.00429593
C       -2.13040000       3.68996000      10.21222000      -0.01004557      -0.04215046      -0.01543379
C        4.26080000       0.00000000      10.22014000      -0.03204336      -0.02745560      -0.02414867
C        2.13040000       3.68996000      10.16264000       0.11630823       0.20130336      -0.02471653
C        0.00000000       2.46002000      10.16525000      -0.23310372      -0.00150825      -0.01899128
C       -2.13040000       6.14998000      10.21683000       0.04141700       0.01263735      -0.01287594
C        4.26080000       2.46002000      10.19540000       0.17718743      -0.00171627      -0.00788468
C        2.13040000       6.14998000      10.20986000       0.04374127      -0.01454759      -0.00850125
C        2.13044000       1.23001000      10.16599000       0.11780135      -0.20655571      -0.00528185
C        0.00004000       4.91997000      10.20869000      -0.08652779       0.14870586      -0.03504034
C        6.39124000       1.23001000      10.20991000      -0.01104564       0.04394644      -0.01231873
C        4.26084000       4.91997000      10.20350000      -0.03373480       0.03102398      -0.00504664
C        7.10130000       2.46002000      10.19947000      -0.17478770      -0.00134369      -0.02386428
C       -3.55069000       6.14998000      10.20803000      -0.04180776       0.01151793      -0.02584161
C        2.84050000       2.46002000      10.16231000       0.23357506      -0.00105903      -0.00650784
C        0.71010000       6.14998000      10.22007000      -0.03949892      -0.01520006      -0.03664671
C        0.71015000       1.23001000      10.16255000      -0.11548259      -0.19953477      -0.00750192
C       -1.42025000       4.91997000      10.21926000       0.03248318       0.02959896      -0.03250199
C        4.97095000       1.23001000      10.21254000       0.00986625       0.04466315      -0.01838824
C        2.84055000       4.91997000      10.19276000       0.08868822       0.15563983      -0.00418105
C        2.84059000       0.00000000      10.20833000       0.08443791      -0.14789204      -0.04923167
C        0.71019000       3.68996000      10.16690000      -0.12080193       0.20698245       0.00340670
C        7.10139000       0.00000000      10.20827000       0.03192616      -0.03086329      -0.03108379
C        4.97099000       3.68996000      10.20630000       0.00865879      -0.04330871      -0.01799569
Li       1.42053000       2.46045000      12.00000000       0.00206871      -0.00138029      -0.00000001
49
Lattice="8.52159977 0.0 0.0 -4.260799885 7.379921881 0.0 0.0 0.0 24.0" Properties=species:S:1:pos:R:3:MACE_forces:R:3 MACE_energy=-447.732177734375 pbc="T T T"
C        0.00000000       0.00000000      13.89314000      -0.13691188      -0.23737404       0.01014967
C       -2.13040000       3.68996000      13.78919000       0.01911808      -0.01792317       0.04251308
C        4.26080000       0.00000000      13.78920000      -0.02511450       0.00756251       0.04254525
C        2.13040000       3.68996000      13.82732000       0.04598742       0.07966558       0.00329012
C        0.00000000       2.46002000      13.89338000      -0.13915803       0.23842239       0.00257340
C       -2.13040000       6.14998000      13.82919000       0.04558744      -0.08042207      -0.03391467
C        4.26080000       2.46002000      13.78879000      -0.02750760      -0.00696229       0.05337517
C        2.13040000       6.14998000      13.78954000       0.01781087       0.01920292       0.05516344
C        2.13044000       1.23001000      13.89341000       0.27608386      -0.00128337       0.00265323
C        0.00004000       4.91997000      13.78877000       0.00771289      -0.02728652       0.05338688
C        6.39124000       1.23001000      13.82916000      -0.09232153      -0.00097511      -0.03387262
C        4.26084000       4.91997000      13.78955000       0.00778025       0.02510893       0.05520604
C        7.10130000       2.46002000      13.83869000      -0.12569261       0.05209286       0.02012595
C       -3.55069000       6.14998000      13.83969000       0.02032938      -0.13953553       0.00872736
C        2.84050000       2.46002000      13.83952000       0.11300890       0.08384758      -0.00338791
C        0.71010000       6.14998000      13.77594000       0.00258040      -0.00110952       0.02253797
C        0.71015000       1.23001000      13.96097000      -0.00033586      -0.00014901      -0.06459346
C       -1.42025000       4.91997000      13.79304000      -0.01717022       0.02913462       0.01636731
C        4.97095000       1.23001000      13.79304000       0.03360818      -0.00019752       0.01636395
C        2.84055000       4.91997000      13.79472000      -0.01600048      -0.02747574      -0.01153871
C        2.84059000       0.00000000      13.83873000       0.10803625      -0.08317716       0.02000728
C        0.71019000       3.68996000      13.83949000       0.01608238       0.13947877      -0.00326498
C        7.10139000       0.00000000      13.83967000      -0.13122702      -0.05207800       0.00873569
C        4.97099000       3.68996000      13.77595000      -0.00228255       0.00141536       0.02252255
C        0.00000000       0.00000000      10.12869000      -0.14769271      -0.25620973      -0.00439572
C       -2.13040000       3.68996000      10.20190000       0.04066989       0.03215829      -0.00558520
C        4.26080000       0.00000000      10.20165000       0.00766163       0.05095672      -0.00520333
C        2.13040000       3.68996000      10.17972000       0.09637804       0.16680184       0.01042794
C        0.00000000       2.46002000      10.12924000      -0.14685036       0.25597054      -0.00324512
C       -2.13040000       6.14998000      10.18110000       0.09745963      -0.16685635       0.01010616
C        4.26080000       2.46002000      10.20295000       0.00886431      -0.05237598      -0.02362953
C        2.13040000       6.14998000      10.20200000       0.04237133      -0.03335860      -0.02432813
C        2.13044000       1.23001000      10.12901000       0.29690915      -0.00164831      -0.00304568
C        0.00004000       4.91997000      10.20291000      -0.04812449      -0.02082047      -0.02363328
C        6.39124000       1.23001000      10.18137000      -0.19149485      -0.00157105       0.00972630
C        4.26084000       4.91997000      10.20201000      -0.04856531       0.01746579      -0.02430784
C        7.81145000       1.23001000      10.12961000      -0.29220694      -0.00010152      -0.00757039
C       -2.84055000       4.91997000      10.20308000       0.04929285       0.01928991      -0.03856552
C        3.55065000       1.23001000      10.18069000       0.18950346       0.00015213      -0.00170813
C        1.42025000       4.91997000      10.20209000       0.04949839      -0.01980104      -0.02915365
C        1.42030000       0.00000000      10.12936000       0.14618553      -0.25339293      -0.00726883
C       -0.71010000       3.68996000      10.18091000      -0.09435180       0.16385475      -0.00200392
C        5.68109000       0.00000000      10.20309000      -0.00726355       0.05203374      -0.03861490
C        3.55069000       3.68996000      10.20212000      -0.04122071       0.03278135      -0.02922869
C        1.42034000       2.45995000      10.12900000       0.14342669       0.25530213      -0.00601183
C       -0.71006000       6.14991000      10.20343000      -0.04367200      -0.02960949      -0.04092783
C        5.68114000       2.45995000      10.20371000      -0.00959602      -0.04935320      -0.04125156
C        3.55074000       6.14991000      10.17927000      -0.09719577      -0.16166493       0.01145471
Li       0.71033000       1.22996000      11.88103000       0.00001001       0.00001485       0.01229195
29
Lattice="6.508500099 0.0 0.0 -3.25425005 5.636526426 0.0 0.0 0.0 24.0" Properties=species:S:1:pos:R:3:MACE_forces:R:3 MACE_energy=-262.1260986328125 pbc="T T T"
C        0.00000000       0.00000000      13.83444000      -0.06853273      -0.14965731       0.01168603
C       -0.46487000       2.41565000      13.85244000      -0.21593413      -0.03468726      -0.00009143
C       -0.92980000       4.83129000      13.83335000      -0.09741655       0.13531594       0.02216637
C        1.85958000       1.61041000      13.85312000       0.13790137      -0.16620186      -0.00725722
C        1.39467000       4.02611000      13.84987000       0.07592975       0.20246249       0.01146485
C        4.18405000       0.80523000      13.83120000      -0.00111004      -0.00090457       0.02038462
C        3.71912000       3.22088000      13.83265000       0.16679725       0.01750589       0.02101973
C       -2.32448000       4.56294000      13.83092000       0.00022180      -0.00174243       0.03050410
C        0.46490000       1.34206000      13.85344000      -0.07621203      -0.20485048       0.00074637
C       -0.00003000       3.75770000      13.85123000      -0.13668424       0.16717890       0.00279024
C        2.78935000       0.53682000      13.83377000       0.09769112      -0.13494414       0.02489906
C        2.32448000       2.95247000      13.85055000       0.21283203       0.03521526       0.01210597
C        1.85954000       5.36812000      13.83226000       0.06898066       0.15218370       0.03123431
C        4.64892000       2.14723000      13.83322000      -0.16387428      -0.01555702       0.02683089
C        0.00000000       0.00000000      10.16556000      -0.06853276      -0.14965756      -0.01168592
C       -0.46487000       2.41565000      10.14756000      -0.21593423      -0.03468705       0.00009143
C       -0.92980000       4.83129000      10.16665000      -0.09741621       0.13531572      -0.02216623
C        1.85958000       1.61041000      10.14688000       0.13790143      -0.16620219       0.00725718
C        1.39467000       4.02611000      10.15013000       0.07593012       0.20246276      -0.01146485
C        4.18405000       0.80523000      10.16880000      -0.00110977      -0.00090477      -0.02038460
C        3.71912000       3.22088000      10.16735000       0.16679792       0.01750664      -0.02101983
C       -2.32448000       4.56294000      10.16908000       0.00022094      -0.00174227      -0.03050410
C        0.46490000       1.34206000      10.14656000      -0.07621264      -0.20485029      -0.00074634
C       -0.00003000       3.75770000      10.14877000      -0.13668448       0.16717914      -0.00279026
C        2.78935000       0.53682000      10.16623000       0.09769101      -0.13494480      -0.02489919
C        2.32448000       2.95247000      10.14945000       0.21283191       0.03521493      -0.01210599
C        1.85954000       5.36812000      10.16774000       0.06898126       0.15218410      -0.03123425
C        4.64892000       2.14723000      10.16678000      -0.16387440      -0.01555675      -0.02683091
Li       0.92971000       2.68334000      12.00000000      -0.00117966      -0.00263470      -0.00000010
49
Lattice="8.52159977 0.0 0.0 -4.260799885 7.379921881 0.0 0.0 0.0 24.0" Properties=species:S:1:pos:R:3:MACE_forces:R:3 MACE_energy=-447.7164306640625 pbc="T T T"
C        0.00000000       0.00000000      13.86664000      -0.13543880      -0.23480722       0.00704588
C       -2.13040000       3.68996000      13.77139000       0.01684786      -0.01374836       0.02970446
C        4.26080000       0.00000000      13.77146000      -0.02041373       0.00779678       0.02967804
C        2.13040000       3.68996000      13.80268000       0.04560023       0.07906373       0.01822532
C        0.00000000       2.46002000      13.86738000      -0.13786206       0.23528475       0.01197083
C       -2.13040000       6.14998000      13.80214000       0.04433706      -0.07757862       0.01554311
C        4.26080000       2.46002000      13.77394000      -0.02039369      -0.00645376       0.00549477
C        2.13040000       6.14998000      13.77148000       0.01519847       0.01397183       0.02170165
C        2.13044000       1.23001000      13.86750000       0.27266884      -0.00175394       0.01113266
C        0.00004000       4.91997000      13.77321000       0.00480708      -0.02142688       0.01431709
C        6.39124000       1.23001000      13.80200000      -0.08917432      -0.00061972       0.01494001
C        4.26084000       4.91997000      13.77134000       0.00460928       0.02043652       0.02330529
C        7.10130000       2.46002000      13.81528000      -0.12649672       0.04796028       0.01664283
C       -3.55069000       6.14998000      13.81466000       0.02339830      -0.13616619       0.01887891
C        2.84050000       2.46002000      13.81641000       0.10887904       0.08687468       0.01925001
C        0.71010000       6.14998000      13.76071000       0.00189552      -0.00137345       0.01656313
C        0.71015000       1.23001000      13.93309000      -0.00109951      -0.00176116       0.00639567
C       -1.42025000       4.91997000      13.77257000      -0.01509347       0.02573470       0.03056618
C        4.97095000       1.23001000      13.77255000       0.02940120      -0.00012775       0.03490902
C        2.84055000       4.91997000      13.77186000      -0.01554940      -0.02672356       0.03497737
C        2.84059000       0.00000000      13.81545000       0.10485528      -0.08559038       0.01640193
C        0.71019000       3.68996000      13.81634000       0.02083263       0.13788570       0.01525737
C        7.10139000       0.00000000      13.81457000      -0.12973677      -0.04758481       0.01987533
C        4.97099000       3.68996000      13.76070000      -0.00221274       0.00055923       0.01985175
C        0.00000000       0.00000000      10.14638000      -0.15574826      -0.27090096      -0.00508004
C       -2.13040000       3.68996000      10.22617000       0.04332625       0.03200025      -0.02763727
C        4.26080000       0.00000000      10.22613000       0.00719521       0.05299383      -0.02288431
C        2.13040000       3.68996000      10.20523000       0.09375371       0.16208562      -0.02146693
C        0.00000000       2.46002000      10.14471000      -0.15483494       0.26966929      -0.00624946
C       -2.13040000       6.14998000      10.20661000       0.09488626      -0.16244692      -0.02210599
C        4.26080000       2.46002000      10.22682000       0.00866699      -0.05419232      -0.02850767
C        2.13040000       6.14998000      10.22650000       0.04365969      -0.03317621      -0.02848709
C        2.13044000       1.23001000      10.14632000       0.31296271      -0.00216264      -0.00553137
C        0.00004000       4.91997000      10.22609000      -0.04924603      -0.02265217      -0.02304594
C        6.39124000       1.23001000      10.20230000      -0.18924683      -0.00135174      -0.01207012
C        4.26084000       4.91997000      10.22593000      -0.04902921       0.01859192      -0.00243673
C        7.81145000       1.23001000      10.14527000      -0.30638206      -0.00096390      -0.00997840
C       -2.84055000       4.91997000      10.22772000       0.05018204       0.02052277      -0.03405931
C        3.55065000       1.23001000      10.20342000       0.18599679       0.00009189      -0.00817780
C        1.42025000       4.91997000      10.22656000       0.04999384      -0.02099732      -0.02527695
C        1.42030000       0.00000000      10.14765000       0.15416631      -0.26829308      -0.01034594
C       -0.71010000       3.68996000      10.20192000      -0.09348667       0.16129471      -0.00275183
C        5.68109000       0.00000000      10.22499000      -0.00631137       0.05375202      -0.02059735
C        3.55069000       3.68996000      10.22765000      -0.04297970       0.03265249      -0.03666942
C        1.42034000       2.45995000      10.14623000       0.15294108       0.27113247      -0.00757697
C       -0.71006000       6.14991000      10.22793000      -0.04507209      -0.02989133      -0.03418342
C        5.68114000       2.45995000      10.22562000      -0.00886677      -0.05109219      -0.02738070
C        3.55074000       6.14991000      10.20427000      -0.09472662      -0.15659527      -0.02174069
Li       0.71034000       1.23144000      11.87627000      -0.00166008       0.00007621      -0.00838707
29
Lattice="6.508500099 0.0 0.0 -3.25425005 5.636526426 0.0 0.0 0.0 24.0" Properties=species:S:1:pos:R:3:MACE_forces:R:3 MACE_energy=-262.031494140625 pbc="T T T"
C        0.00000000       0.00000000      13.88389000      -0.06529655      -0.24586630       0.04020569
C       -0.46487000       2.41565000      13.88782000      -0.18569890       0.18193012       0.00436745
C       -0.92980000       4.83129000      13.85780000       0.02948413      -0.07246049       0.01914063
C        1.85958000       1.61041000      13.88802000       0.24934547       0.07045383       0.00463853
C        1.39467000       4.02611000      13.85753000       0.04893708       0.06149963       0.01781037
C        4.18405000       0.80523000      13.85760000      -0.08016742       0.01046357       0.01834356
C        3.71912000       3.22088000      13.84706000       0.00180668       0.00025952       0.02407100
C       -2.32448000       4.56294000      13.85981000       0.05207375      -0.09108256       0.01511748
C        0.46490000       1.34206000      13.93429000      -0.00074361      -0.00416809       0.02164665
C       -0.00003000       3.75770000      13.86189000       0.00201041       0.14750248       0.03076039
C        2.78935000       0.53682000      13.86202000       0.12818055      -0.07542726       0.02616573
C        2.32448000       2.95247000      13.86062000       0.04951610       0.08697968       0.02613324
C        1.85954000       5.36812000      13.86043000      -0.12861019      -0.07275268       0.02188459
C        4.64892000       2.14723000      13.86051000      -0.10116903       0.00211642       0.02665925
C        0.00000000       0.00000000      10.12748000      -0.09592862      -0.26319051      -0.04294994
C       -0.46487000       2.41565000      10.12426000      -0.17945181       0.21417300      -0.01350050
C       -0.92980000       4.83129000      10.14972000       0.11258738      -0.14955564      -0.02074123
C        1.85958000       1.61041000      10.12439000       0.27404150       0.04731507      -0.01797910
C        1.39467000       4.02611000      10.15049000       0.07537839       0.17073400      -0.02491363
C        4.18405000       0.80523000      10.14951000      -0.18662921      -0.02272168      -0.02588348
C        3.71912000       3.22088000      10.15298000       0.00141885      -0.00071971      -0.02226553
C       -1.39467000       3.48929000      10.14953000      -0.10976443       0.14710292      -0.02355621
C        1.39471000       0.26841000      10.12548000       0.17369887      -0.21203214      -0.01459309
C        0.92977000       2.68406000      10.12526000       0.09814833       0.25777590      -0.02448544
C        0.46490000       5.09970000      10.15303000      -0.00105064       0.00141937      -0.01813211
C        3.25428000       1.87882000      10.14830000       0.18196872       0.02108371      -0.01256961
C        2.78935000       4.29447000      10.15068000      -0.07478350      -0.16849294      -0.01616011
C        5.57873000       1.07359000      10.12528000      -0.27144462      -0.04436392      -0.01452729
Li       0.46384000       1.34256000      11.86431000       0.00214230       0.00202466      -0.00468722
37
Lattice="7.380000114 0.0 0.0 -3.690000057 6.391267579 0.0 0.0 0.0 24.0" Properties=species:S:1:pos:R:3:MACE_forces:R:3 MACE_energy=-336.30670166015625 pbc="T T T"
C        0.00000000       0.00000000      13.77458000      -0.19567540      -0.11309870       0.03637394
C       -1.22999000       2.13040000      13.73292000      -0.16626376       0.09772629       0.05976008
C       -2.46001000       4.26087000      13.73259000       0.00020969      -0.19194435       0.07585964
C        2.45998000       0.00000000      13.77487000       0.19555330      -0.11290556       0.03222215
C        1.22999000       2.13040000      13.77458000       0.00007185       0.22771689       0.03634587
C       -0.00004000       4.26087000      13.72670000       0.03283670       0.01838132       0.05981115
C        4.92002000       0.00000000      13.72670000      -0.00139850      -0.03833662       0.05981434
C        3.69004000       2.13040000      13.73259000       0.16424455       0.09671111       0.07587666
C        2.46001000       4.26087000      13.72597000      -0.03397765       0.01756525       0.08162461
C        0.00000000       1.42027000      13.77437000      -0.19569989       0.11291711       0.04002891
C       -1.23002000       3.55073000      13.72719000      -0.03275459      -0.02056057       0.05253715
C       -2.46001000       5.68113000      13.77478000      -0.00004988      -0.22556525       0.03246477
C        2.45998000       1.42027000      13.77478000       0.19697690       0.11369160       0.03242277
C        1.22995000       3.55073000      13.73281000       0.00164118       0.19068113       0.05136819
C       -0.00004000       5.68113000      13.73275000       0.16723773      -0.09459985       0.05810654
C        4.92002000       1.42027000      13.72719000       0.00016334       0.03752816       0.05253290
C        3.69000000       3.55073000      13.72902000       0.03232580      -0.02024847       0.02299459
C        2.46001000       5.68113000      13.73281000      -0.16581334      -0.09546615       0.05136492
C        0.00000000       0.00000000      10.22542000      -0.19567513      -0.11309929      -0.03637399
C       -1.22999000       2.13040000      10.26708000      -0.16626370       0.09772625      -0.05976010
C       -2.46001000       4.26087000      10.26741000       0.00020971      -0.19194424      -0.07585977
C        2.45998000       0.00000000      10.22513000       0.19555318      -0.11290474      -0.03222215
C        1.22999000       2.13040000      10.22542000       0.00007183       0.22771725      -0.03634578
C       -0.00004000       4.26087000      10.27330000       0.03283676       0.01838126      -0.05981116
C        4.92002000       0.00000000      10.27330000      -0.00139854      -0.03833693      -0.05981433
C        3.69004000       2.13040000      10.26741000       0.16424409       0.09671086      -0.07587665
C        2.46001000       4.26087000      10.27403000      -0.03397740       0.01756496      -0.08162461
C        0.00000000       1.42027000      10.22563000      -0.19569945       0.11291701      -0.04002896
C       -1.23002000       3.55073000      10.27281000      -0.03275487      -0.02056082      -0.05253717
C       -2.46001000       5.68113000      10.22522000      -0.00005034      -0.22556520      -0.03246489
C        2.45998000       1.42027000      10.22522000       0.19697723       0.11369178      -0.03242283
C        1.22995000       3.55073000      10.26719000       0.00164138       0.19068097      -0.05136831
C       -0.00004000       5.68113000      10.26725000       0.16723779      -0.09460003      -0.05810672
C        4.92002000       1.42027000      10.27281000       0.00016289       0.03752860      -0.05253292
C        3.69000000       3.55073000      10.27098000       0.03232557      -0.02024896      -0.02299456
C        2.46001000       5.68113000      10.26719000      -0.16581325      -0.09546602      -0.05136505
Li       1.23000000       0.71013000      12.00000000       0.00074454      -0.00038566       0.00000064
29
Lattice="6.508500099 0.0 0.0 -3.25425005 5.636526426 0.0 0.0 0.0 24.0" Properties=species:S:1:pos:R:3:MACE_forces:R:3 MACE_energy=-262.0539245605469 pbc="T T T"
C        0.00000000       0.00000000      13.94066000      -0.06809919      -0.24892133      -0.01487902
C       -0.46487000       2.41565000      13.93764000      -0.18337898       0.18245207       0.00977259
C       -0.92980000       4.83129000      13.92024000       0.02916249      -0.06802298       0.00808340
C        1.85958000       1.61041000      13.93767000       0.24871425       0.06853383       0.01458074
C        1.39467000       4.02611000      13.92004000       0.04534215       0.05849726       0.00714948
C        4.18405000       0.80523000      13.91996000      -0.07637414       0.00911547       0.01264980
C        3.71912000       3.22088000      13.91310000       0.00167421       0.00012371       0.00872863
C       -2.32448000       4.56294000      13.92247000       0.05058582      -0.09385242       0.01005407
C        0.46490000       1.34206000      13.97244000       0.00083898      -0.00038310       0.00436966
C       -0.00003000       3.75770000      13.92154000       0.00068575       0.14943939       0.01227624
C        2.78935000       0.53682000      13.92256000       0.13071272      -0.07547844       0.00295176
C        2.32448000       2.95247000      13.92171000       0.05278935       0.09032956       0.00180387
C        1.85954000       5.36812000      13.92267000      -0.12693124      -0.07500476       0.01658037
C        4.64892000       2.14723000      13.92170000      -0.10578357       0.00341676       0.00177949